ITEM: TIMESTEP
0
ITEM: NUMBER OF ATOMS
4000
ITEM: BOX BOUNDS pp pp pp
0.0000000000000000e+00 1.6795961913825074e+01
0.0000000000000000e+00 1.6795961913825074e+01
0.0000000000000000e+00 1.6795961913825074e+01
ITEM: ATOMS id type element x y z vx vy vz fx fy fz
1 1 Ar 0 0 0 -1.7149 1.42135 1.87842 -6.4837e-14 -6.26166e-14 -6.25611e-14
2 1 Ar 0.839798 0.839798 0 -1.97181 -2.05746 -1.91381 9.32587e-15 1.11855e-14 -6.19504e-14
3 1 Ar 0.839798 0 0.839798 1.11557 0.367852 1.73642 9.65894e-15 -6.35186e-14 1.18239e-14
4 1 Ar 0 0.839798 0.839798 1.19176 -0.697146 -1.3049 -6.61693e-14 9.99201e-15 1.15463e-14
5 1 Ar 1.6796 0 0 -0.993376 1.2467 2.03147 -6.245e-17 -6.30607e-14 -6.30607e-14
6 1 Ar 2.51939 0.839798 0 -1.49381 -0.671768 -1.98592 -1.43635e-15 9.54792e-15 -6.26166e-14
7 1 Ar 2.51939 0 0.839798 -0.99756 -1.39813 1.52588 -1.55431e-15 -6.30607e-14 1.04361e-14
8 1 Ar 1.6796 0.839798 0.839798 -1.23897 1.771 -1.12126 -1.11022e-16 1.02141e-14 1.22957e-14
9 1 Ar 3.35919 0 0 1.81127 1.8518 -0.833427 1.14075e-14 -6.21725e-14 -6.12843e-14
10 1 Ar 4.19899 0.839798 0 0.539478 0.0596275 -1.29316 -2.06224e-14 9.10383e-15 -6.16174e-14
11 1 Ar 4.19899 0 0.839798 1.72832 -0.690153 2.02437 -2.05322e-14 -6.21725e-14 1.13243e-14
12 1 Ar 3.35919 0.839798 0.839798 1.89231 1.8311 -1.91226 1.42594e-14 9.99201e-15 1.23235e-14
13 1 Ar 5.03879 0 0 1.78106 1.64746 -0.622155 3.95517e-16 -6.39488e-14 -6.39488e-14
14 1 Ar 5.87859 0.839798 0 -1.67568 0.833611 0.336995 1.93665e-14 9.99201e-15 -6.16174e-14
15 1 Ar 5.87859 0 0.839798 -1.09722 -1.35431 2.08612 1.96995e-14 -6.39488e-14 1.08802e-14
16 1 Ar 5.03879 0.839798 0.839798 -0.824067 0.138026 0.870878 3.33067e-16 1.0103e-14 1.21569e-14
17 1 Ar 6.71838 0 0 0.433521 0.00355036 -0.531178 -2.7825e-15 -6.03961e-14 -6.01741e-14
18 1 Ar 7.55818 0.839798 0 0.408562 -0.729981 0.936192 6.38378e-15 8.88178e-15 -5.8939e-14
19 1 Ar 7.55818 0 0.839798 -1.5899 0.141385 -1.8887 6.1201e-15 -5.9508e-14 9.54792e-15
20 1 Ar 6.71838 0.839798 0.839798 0.274132 -1.37025 0.689509 -3.15026e-15 9.21485e-15 1.18794e-14
21 1 Ar 8.39798 0 0 1.86272 -0.688733 0.510451 -4.62061e-14 -6.03961e-14 -6.21725e-14
24 1 Ar 8.39798 0.839798 0.839798 -0.294881 -1.13731 -1.13695 -4.88221e-14 1.0103e-14 1.03528e-14
22 1 Ar 9.23778 0.839798 0 -0.17084 -1.69654 -1.52881 4.73233e-14 9.54792e-15 -5.98827e-14
23 1 Ar 9.23778 0 0.839798 0.2195 -1.69352 -1.49713 4.7802e-14 -6.21725e-14 8.65974e-15
25 1 Ar 10.0776 0 0 0.307831 -1.78347 0.964243 5.75928e-16 -5.9508e-14 -6.01741e-14
28 1 Ar 10.0776 0.839798 0.839798 0.564739 1.64459 2.01797 4.71845e-16 9.76996e-15 1.05471e-14
26 1 Ar 10.9174 0.839798 0 0.345411 -0.424815 -0.917166 -4.78298e-14 9.54792e-15 -6.1659e-14
27 1 Ar 10.9174 0 0.839798 1.65605 -1.36553 -0.418924 -4.8149e-14 -6.12843e-14 9.99201e-15
29 1 Ar 11.7572 0 0 0.0371945 0.911656 0.795278 4.62824e-14 -6.03961e-14 -6.15064e-14
32 1 Ar 11.7572 0.839798 0.839798 -0.584536 -0.849294 0.586877 4.92106e-14 9.54792e-15 9.6867e-15
30 1 Ar 12.597 0.839798 0 -1.23057 -0.805558 -0.336841 -5.89806e-15 9.99201e-15 -5.8939e-14
31 1 Ar 12.597 0 0.839798 1.22126 0.190518 -0.932148 -5.39846e-15 -5.9508e-14 9.99201e-15
33 1 Ar 13.4368 0 0 -1.54361 -0.207766 0.922582 -2.56739e-16 -6.03961e-14 -6.01741e-14
36 1 Ar 13.4368 0.839798 0.839798 -1.79094 0.84908 -1.92463 -1.80411e-16 9.54792e-15 1.16573e-14
34 1 Ar 14.2766 0.839798 0 -1.92676 -2.03194 -0.269432 6.38378e-15 8.88178e-15 -5.8939e-14
35 1 Ar 14.2766 0 0.839798 0.569664 -0.179591 0.716976 6.1201e-15 -5.86198e-14 9.54792e-15
37 1 Ar 15.1164 0 0 1.1896 1.01138 1.79755 -5.26246e-14 -6.2006e-14 -6.2006e-14
40 1 Ar 15.1164 0.839798 0.839798 -0.357832 -1.70636 -1.60338 -5.58026e-14 1.03528e-14 1.13798e-14
38 1 Ar 15.9562 0.839798 0 0.722147 -0.678281 -1.47792 9.4591e-14 1.00475e-14 -6.17284e-14
39 1 Ar 15.9562 0 0.839798 1.11013 2.03477 -0.73407 9.4591e-14 -6.19504e-14 8.32667e-15
41 1 Ar 0 1.6796 0 -0.957387 1.23816 -2.00298 -6.39488e-14 -6.10623e-16 -6.30607e-14
42 1 Ar 0.839798 2.51939 0 -0.218736 1.226 0.927438 9.76996e-15 -2.77556e-16 -6.23945e-14
43 1 Ar 0.839798 1.6796 0.839798 -0.676295 0.849863 -1.45344 9.54792e-15 3.46945e-17 1.18516e-14
44 1 Ar 0 2.51939 0.839798 -2.01538 1.69938 0.680435 -6.52811e-14 -3.33067e-15 1.02141e-14
45 1 Ar 1.6796 1.6796 0 1.62536 -1.17993 1.6027 -2.08167e-17 7.00828e-16 -6.21725e-14
46 1 Ar 2.51939 2.51939 0 -0.138575 -0.824466 -0.882706 -1.54043e-15 -1.94983e-15 -6.21725e-14
47 1 Ar 2.51939 1.6796 0.839798 1.34007 0.564904 1.6377 -1.33227e-15 -1.59595e-16 9.99201e-15
48 1 Ar 1.6796 2.51939 0.839798 0.0842343 0.533456 1.80792 -1.17961e-16 -1.04083e-15 1.15463e-14
49 1 Ar 3.35919 1.6796 0 1.68929 -1.15529 1.10596 1.28508e-14 4.51028e-16 -6.12843e-14
50 1 Ar 4.19899 2.51939 0 0.728228 0.0106812 0.881915 -2.09555e-14 -2.27596e-15 -6.12843e-14
51 1 Ar 4.19899 1.6796 0.839798 -0.191069 0.937114 1.46643 -2.22738e-14 1.17961e-16 1.08802e-14
52 1 Ar 3.35919 2.51939 0.839798 -2.11247 -1.52586 -0.743925 1.42455e-14 -1.09635e-15 1.13243e-14
53 1 Ar 5.03879 1.6796 0 -1.01705 0.970642 -1.82543 4.3715e-16 4.30211e-16 -6.30607e-14
54 1 Ar 5.87859 2.51939 0 1.83611 0.459117 0.198788 1.92901e-14 -1.42247e-15 -6.12843e-14
55 1 Ar 5.87859 1.6796 0.839798 -1.7707 -1.57595 -0.896714 2.01089e-14 1.73472e-16 1.08802e-14
56 1 Ar 5.03879 2.51939 0.839798 -1.44957 -1.63863 -1.07425 5.55112e-16 -9.99201e-16 1.02141e-14
57 1 Ar 6.71838 1.6796 0 0.940087 -0.77634 0.0795577 -3.44863e-15 -4.85723e-17 -5.86198e-14
58 1 Ar 7.55818 2.51939 0 -0.731364 1.63059 -0.687294 7.05686e-15 -1.31145e-15 -5.9508e-14
59 1 Ar 7.55818 1.6796 0.839798 -0.940445 -1.6397 2.07067 6.60583e-15 -1.45717e-16 1.04361e-14
60 1 Ar 6.71838 2.51939 0.839798 1.78965 -1.99688 1.1201 -2.87964e-15 -1.249e-15 1.11022e-14
61 1 Ar 8.39798 1.6796 0 1.57992 0.624432 -0.349744 -4.75522e-14 -8.88178e-16 -6.03961e-14
64 1 Ar 8.39798 2.51939 0.839798 -0.792558 0.996049 -2.02327 -4.9051e-14 -1.80411e-15 1.04361e-14
62 1 Ar 9.23778 2.51939 0 0.0779291 0.30703 -1.10952 4.77535e-14 -1.4988e-15 -6.30607e-14
63 1 Ar 9.23778 1.6796 0.839798 0.278025 0.603639 1.25561 4.90788e-14 -3.40006e-16 1.11022e-14
65 1 Ar 10.0776 1.6796 0 1.51704 1.26279 1.6276 6.17562e-16 -2.15106e-16 -6.12843e-14
68 1 Ar 10.0776 2.51939 0.839798 1.01106 -0.789998 -1.06439 7.00828e-16 -1.58207e-15 9.76996e-15
66 1 Ar 10.9174 2.51939 0 -0.371287 0.563462 -1.45659 -4.72053e-14 -1.38778e-15 -6.21725e-14
67 1 Ar 10.9174 1.6796 0.839798 0.130105 1.65503 -0.144829 -4.84682e-14 -2.498e-16 9.99201e-15
69 1 Ar 11.7572 1.6796 0 1.78502 0.467666 0.0726032 4.77118e-14 -1.73472e-16 -6.03961e-14
72 1 Ar 11.7572 2.51939 0.839798 0.985827 -1.84894 0.427256 4.92453e-14 -1.50574e-15 1.06581e-14
70 1 Ar 12.597 2.51939 0 0.820186 1.66604 -1.36195 -6.7793e-15 -3.747e-16 -5.9508e-14
71 1 Ar 12.597 1.6796 0.839798 0.274391 -1.24426 -0.957474 -6.03684e-15 1.02002e-15 1.17684e-14
73 1 Ar 13.4368 1.6796 0 1.65127 -1.34311 -0.0882142 -2.28983e-16 -8.25728e-16 -5.9508e-14
76 1 Ar 13.4368 2.51939 0.839798 -2.10961 0.000409095 1.66135 -1.73472e-16 -1.25594e-15 1.06581e-14
74 1 Ar 14.2766 2.51939 0 0.81922 -1.87728 1.97071 7.05686e-15 -1.31145e-15 -5.9508e-14
75 1 Ar 14.2766 1.6796 0.839798 0.918319 1.35523 -1.29037 6.60583e-15 -2.01228e-16 1.02141e-14
77 1 Ar 15.1164 1.6796 0 0.00551724 1.46977 -0.770094 -5.36238e-14 -5.13478e-16 -6.11455e-14
80 1 Ar 15.1164 2.51939 0.839798 -1.45018 0.924939 -0.137926 -5.51781e-14 -1.29757e-15 1.16851e-14
78 1 Ar 15.9562 2.51939 0 -0.936687 -1.92928 -0.597886 9.54792e-14 -1.7486e-15 -6.41709e-14
79 1 Ar 15.9562 1.6796 0.839798 0.156729 0.77023 1.00969 9.50351e-14 -4.44089e-16 9.65894e-15
81 1 Ar 0 3.35919 0 -1.4115 -0.363309 0.745418 -6.30607e-14 1.08247e-14 -6.21725e-14
82 1 Ar 0.839798 4.19899 0 -1.72924 1.6001 -1.27776 9.32587e-15 -1.97342e-14 -6.14786e-14
83 1 Ar 0.839798 3.35919 0.839798 -1.72134 -1.06026 -0.532626 9.32587e-15 1.4426e-14 1.18794e-14
84 1 Ar 0 4.19899 0.839798 1.45174 -0.643627 1.47046 -6.35048e-14 -2.13163e-14 9.54792e-15
85 1 Ar 1.6796 3.35919 0 -1.99398 1.91395 -1.08405 -4.85723e-17 1.34961e-14 -6.03961e-14
86 1 Ar 2.51939 4.19899 0 1.25721 -0.451178 0.144144 -1.49186e-15 -2.05738e-14 -6.21725e-14
87 1 Ar 2.51939 3.35919 0.839798 1.92822 0.446049 0.513203 -1.17961e-15 1.42247e-14 9.99201e-15
88 1 Ar 1.6796 4.19899 0.839798 -0.433054 -1.23928 -1.91535 -2.56739e-16 -2.22322e-14 1.06581e-14
89 1 Ar 3.35919 3.35919 0 0.583156 -1.83424 -2.10849 1.27676e-14 1.34129e-14 -5.9508e-14
90 1 Ar 4.19899 4.19899 0 -1.12855 0.835735 -2.03345 -2.04767e-14 -2.13093e-14 -5.86198e-14
91 1 Ar 4.19899 3.35919 0.839798 -0.384673 -0.229153 1.01052 -2.28498e-14 1.18516e-14 1.06581e-14
92 1 Ar 3.35919 4.19899 0.839798 -0.194817 1.38775 -0.385257 1.19141e-14 -2.3051e-14 1.04361e-14
93 1 Ar 5.03879 3.35919 0 -0.395401 1.34493 -1.00316 3.88578e-16 1.02487e-14 -6.21725e-14
94 1 Ar 5.87859 4.19899 0 -1.21667 0.128963 0.825694 1.88807e-14 -2.01089e-14 -5.9508e-14
95 1 Ar 5.87859 3.35919 0.839798 -1.84748 -1.91205 1.46379 2.1344e-14 1.21292e-14 1.08802e-14
96 1 Ar 5.03879 4.19899 0.839798 0.0701187 0.161777 -1.77547 6.10623e-16 -1.98661e-14 1.08802e-14
97 1 Ar 6.71838 3.35919 0 -0.13649 0.381474 -1.9653 -2.58821e-15 1.20806e-14 -5.68434e-14
98 1 Ar 7.55818 4.19899 0 -1.31393 -1.7583 1.02973 5.98827e-15 -2.28637e-14 -5.59552e-14
99 1 Ar 7.55818 3.35919 0.839798 1.18431 0.911387 0.510985 6.95277e-15 1.27398e-14 1.02141e-14
100 1 Ar 6.71838 4.19899 0.839798 0.358451 -1.21729 -0.297246 -2.54657e-15 -2.41057e-14 9.99201e-15
101 1 Ar 8.39798 3.35919 0 -1.62651 -1.89735 -1.1475 -4.78992e-14 1.08386e-14 -5.9508e-14
104 1 Ar 8.39798 4.19899 0.839798 1.08672 1.85096 2.06516 -4.75175e-14 -2.26208e-14 8.65974e-15
102 1 Ar 9.23778 4.19899 0 0.804297 1.10828 2.03355 4.56996e-14 -2.10942e-14 -5.9508e-14
103 1 Ar 9.23778 3.35919 0.839798 -0.387977 -0.782648 -0.200695 4.87596e-14 1.33504e-14 1.11022e-14
105 1 Ar 10.0776 3.35919 0 -1.97315 0.952436 0.964198 -4.09395e-16 1.14977e-14 -5.77316e-14
108 1 Ar 10.0776 4.19899 0.839798 -1.54098 1.75612 -1.66242 2.01228e-16 -2.35922e-14 9.10383e-15
106 1 Ar 10.9174 4.19899 0 -0.413502 1.67405 -1.98313 -4.62616e-14 -2.13024e-14 -5.86198e-14
107 1 Ar 10.9174 3.35919 0.839798 -0.688428 -0.0497063 1.10658 -4.8829e-14 1.30382e-14 1.08802e-14
109 1 Ar 11.7572 3.35919 0 0.73664 1.82053 -1.82861 4.65739e-14 1.22055e-14 -5.9508e-14
112 1 Ar 11.7572 4.19899 0.839798 0.245383 1.865 1.15382 4.76147e-14 -2.31482e-14 9.99201e-15
110 1 Ar 12.597 4.19899 0 -0.725359 1.03173 1.32132 -6.5295e-15 -2.26763e-14 -5.68434e-14
111 1 Ar 12.597 3.35919 0.839798 -0.373096 -0.2309 1.26347 -6.63358e-15 1.385e-14 1.15463e-14
113 1 Ar 13.4368 3.35919 0 1.56771 -1.43246 -0.162967 -2.56739e-16 1.06373e-14 -5.77316e-14
116 1 Ar 13.4368 4.19899 0.839798 1.99458 -0.800804 -0.803219 3.81639e-16 -2.29816e-14 9.76996e-15
114 1 Ar 14.2766 4.19899 0 0.712794 -1.36459 -1.51774 5.98827e-15 -2.28081e-14 -5.59552e-14
115 1 Ar 14.2766 3.35919 0.839798 0.179629 0.728739 1.58672 6.95277e-15 1.26843e-14 1.02141e-14
117 1 Ar 15.1164 3.35919 0 0.665199 -1.85308 -1.45787 -5.37348e-14 1.11716e-14 -6.01741e-14
120 1 Ar 15.1164 4.19899 0.839798 -0.314213 -0.363465 -1.87123 -5.40956e-14 -2.20102e-14 9.46465e-15
118 1 Ar 15.9562 4.19899 0 -0.289495 0.546716 0.501369 9.41469e-14 -1.85685e-14 -6.21725e-14
119 1 Ar 15.9562 3.35919 0.839798 -0.535381 0.484741 -0.587344 9.41469e-14 1.24345e-14 1.07692e-14
121 1 Ar 0 5.03879 0 1.90254 0.282588 -1.6262 -6.39488e-14 -1.11022e-16 -6.39488e-14
122 1 Ar 0.839798 5.87859 0 0.305813 -1.86801 1.38095 9.10383e-15 2.03448e-14 -6.04933e-14
123 1 Ar 0.839798 5.03879 0.839798 -0.679309 0.939146 1.76412 9.65894e-15 -2.98372e-16 1.06026e-14
124 1 Ar 0 5.87859 0.839798 1.58145 0.948289 -1.05805 -6.35048e-14 1.84297e-14 1.13243e-14
125 1 Ar 1.6796 5.03879 0 -1.63316 0.530062 -0.246615 1.80411e-16 2.84495e-16 -6.30607e-14
126 1 Ar 2.51939 5.87859 0 -0.866704 -1.61697 -0.854225 -1.50574e-15 1.8853e-14 -6.12843e-14
127 1 Ar 2.51939 5.03879 0.839798 2.0584 1.536 -0.119808 -2.18575e-15 -1.17961e-15 9.99201e-15
128 1 Ar 1.6796 5.87859 0.839798 -1.45046 0.315133 -0.287661 2.15106e-16 2.04003e-14 1.17684e-14
129 1 Ar 3.35919 5.03879 0 -1.26122 0.0707283 -0.834447 9.40914e-15 1.38778e-17 -6.21725e-14
130 1 Ar 4.19899 5.87859 0 0.304096 -1.10962 -1.05958 -2.07057e-14 1.88252e-14 -6.03961e-14
131 1 Ar 4.19899 5.03879 0.839798 -1.96987 1.08329 0.72483 -1.99216e-14 -7.42462e-16 9.99201e-15
132 1 Ar 3.35919 5.87859 0.839798 -0.904686 -1.26883 0.475921 1.23443e-14 2.16216e-14 1.17684e-14
133 1 Ar 5.03879 5.03879 0 -1.02228 1.95597 -1.13927 1.73472e-16 3.46945e-17 -6.30607e-14
134 1 Ar 5.87859 5.87859 0 -0.555839 -0.73731 0.423008 1.8735e-14 1.99632e-14 -6.03961e-14
135 1 Ar 5.87859 5.03879 0.839798 -2.06706 0.234935 1.14207 1.86101e-14 4.996e-16 1.13243e-14
136 1 Ar 5.03879 5.87859 0.839798 -1.41822 0.780921 -1.17814 -1.59595e-16 1.89015e-14 1.15463e-14
137 1 Ar 6.71838 5.03879 0 1.78764 -1.95595 -0.458753 -3.29597e-15 6.93889e-17 -6.12843e-14
138 1 Ar 7.55818 5.87859 0 -0.526915 -1.04016 -1.10379 6.30745e-15 1.96163e-14 -5.77316e-14
139 1 Ar 7.55818 5.03879 0.839798 -0.608666 -0.343853 2.04668 5.93969e-15 -8.74301e-16 1.06581e-14
140 1 Ar 6.71838 5.87859 0.839798 0.336217 1.54512 0.991198 -2.97679e-15 2.13163e-14 1.11022e-14
141 1 Ar 8.39798 5.03879 0 0.790892 -0.0155047 0.676753 -4.46101e-14 -4.92661e-16 -6.12843e-14
144 1 Ar 8.39798 5.87859 0.839798 0.603267 2.01917 -0.629347 -4.74482e-14 2.03934e-14 1.11022e-14
142 1 Ar 9.23778 5.87859 0 -1.03286 1.75901 0.390277 4.58938e-14 1.91167e-14 -6.12843e-14
143 1 Ar 9.23778 5.03879 0.839798 1.93179 1.30274 0.592541 4.62755e-14 -3.19189e-16 1.04361e-14
145 1 Ar 10.0776 5.03879 0 0.127634 -1.80811 1.43735 -2.70617e-16 6.52256e-16 -6.03961e-14
148 1 Ar 10.0776 5.87859 0.839798 -0.239229 -0.6005 -1.22812 4.92661e-16 2.16702e-14 9.99201e-15
146 1 Ar 10.9174 5.87859 0 -0.174464 0.845643 -0.466182 -4.62616e-14 2.01228e-14 -6.12843e-14
147 1 Ar 10.9174 5.03879 0.839798 1.513 1.06723 1.48718 -4.57412e-14 -7.56339e-16 9.99201e-15
149 1 Ar 11.7572 5.03879 0 -0.726969 -0.63602 -1.81126 4.44783e-14 -2.63678e-16 -6.12843e-14
152 1 Ar 11.7572 5.87859 0.839798 -0.0857401 -1.096 -0.587415 4.79131e-14 2.12538e-14 1.02141e-14
150 1 Ar 12.597 5.87859 0 -1.00389 -1.97986 -0.524795 -6.75154e-15 2.06571e-14 -5.9508e-14
151 1 Ar 12.597 5.03879 0.839798 1.95214 0.603458 -1.77849 -5.25968e-15 1.249e-16 1.11022e-14
153 1 Ar 13.4368 5.03879 0 -1.50987 0.136364 -1.67255 -7.63278e-17 -9.29812e-16 -5.9508e-14
156 1 Ar 13.4368 5.87859 0.839798 -1.68607 -0.448384 0.577548 6.17562e-16 2.28637e-14 1.11022e-14
154 1 Ar 14.2766 5.87859 0 -0.320086 -1.77768 1.0475 6.30745e-15 1.97828e-14 -5.68434e-14
155 1 Ar 14.2766 5.03879 0.839798 -0.360166 1.36424 -2.11959 5.93969e-15 -7.07767e-16 1.04361e-14
157 1 Ar 15.1164 5.03879 0 -1.82936 -1.90891 -0.750684 -5.07927e-14 1.38778e-17 -6.20337e-14
160 1 Ar 15.1164 5.87859 0.839798 -1.56582 -1.24886 1.97262 -5.3596e-14 2.07889e-14 1.23512e-14
158 1 Ar 15.9562 5.87859 0 -0.413211 -1.89555 -0.428876 9.37028e-14 1.73195e-14 -6.21725e-14
159 1 Ar 15.9562 5.03879 0.839798 -1.74005 1.73332 0.167593 9.57012e-14 -4.44089e-16 9.99201e-15
161 1 Ar 0 6.71838 0 -0.840318 1.94958 1.45535 -6.03961e-14 -3.44169e-15 -5.92859e-14
162 1 Ar 0.839798 7.55818 0 1.93195 -0.20324 0.849487 9.32587e-15 6.96665e-15 -5.95912e-14
163 1 Ar 0.839798 6.71838 0.839798 0.440484 -1.40062 1.99763 9.21485e-15 -2.88658e-15 1.18794e-14
164 1 Ar 0 7.55818 0.839798 0.892429 1.90596 0.0320723 -6.39488e-14 5.77316e-15 9.99201e-15
165 1 Ar 1.6796 6.71838 0 0.618918 -1.41236 -0.743498 -4.85723e-17 -2.18575e-15 -5.9508e-14
166 1 Ar 2.51939 7.55818 0 1.92968 -0.372419 -0.0870498 -1.21431e-15 6.50174e-15 -6.03961e-14
167 1 Ar 2.51939 6.71838 0.839798 -0.760373 0.506055 -1.89444 -1.17961e-15 -3.10169e-15 9.99201e-15
168 1 Ar 1.6796 7.55818 0.839798 1.02612 -1.38402 1.76779 -2.42861e-16 6.43929e-15 9.99201e-15
169 1 Ar 3.35919 6.71838 0 -0.312461 -0.518266 1.95875 1.18239e-14 -2.43555e-15 -5.68434e-14
170 1 Ar 4.19899 7.55818 0 -1.24044 -1.68945 -0.81938 -2.23987e-14 6.16868e-15 -5.59552e-14
171 1 Ar 4.19899 6.71838 0.839798 -0.241497 -0.64706 -1.25115 -2.37796e-14 -3.29597e-15 1.02141e-14
172 1 Ar 3.35919 7.55818 0.839798 1.29578 0.594258 0.0908808 1.30729e-14 7.00828e-15 9.76996e-15
173 1 Ar 5.03879 6.71838 0 -0.765183 0.0312157 -0.840919 3.88578e-16 -2.99066e-15 -5.86198e-14
174 1 Ar 5.87859 7.55818 0 1.50248 1.93105 -1.22628 2.01714e-14 6.58501e-15 -5.86198e-14
175 1 Ar 5.87859 6.71838 0.839798 0.628144 1.37537 -1.08669 2.226e-14 -3.0323e-15 1.15463e-14
176 1 Ar 5.03879 7.55818 0.839798 -0.898376 -0.976499 -1.29439 3.747e-16 5.77316e-15 1.02141e-14
177 1 Ar 6.71838 6.71838 0 -2.10578 0.926315 1.83932 -2.58821e-15 -2.76862e-15 -5.68434e-14
178 1 Ar 7.55818 7.55818 0 0.743896 1.09367 1.71938 6.0299e-15 6.25194e-15 -5.32907e-14
179 1 Ar 7.55818 6.71838 0.839798 -1.74847 -0.20259 -0.911373 6.95277e-15 -3.33761e-15 1.08802e-14
180 1 Ar 6.71838 7.55818 0.839798 1.73872 0.603494 -1.17155 -2.5327e-15 6.78624e-15 9.10383e-15
181 1 Ar 8.39798 6.71838 0 -1.71926 0.0374952 -1.04627 -4.69971e-14 -2.98372e-15 -5.86198e-14
184 1 Ar 8.39798 7.55818 0.839798 0.177397 1.27865 1.76616 -4.83086e-14 5.60663e-15 8.43769e-15
182 1 Ar 9.23778 7.55818 0 1.68166 1.81866 0.510015 4.66779e-14 6.83481e-15 -5.68434e-14
183 1 Ar 9.23778 6.71838 0.839798 0.973052 -0.845829 -0.392522 4.88082e-14 -2.69923e-15 1.17684e-14
185 1 Ar 10.0776 6.71838 0 1.88844 0.252147 -1.43862 -4.23273e-16 -3.35149e-15 -5.68434e-14
188 1 Ar 10.0776 7.55818 0.839798 -0.480537 0.137386 -1.42379 1.59595e-16 6.2797e-15 8.43769e-15
186 1 Ar 10.9174 7.55818 0 1.77787 -1.32288 1.54417 -4.71012e-14 5.60663e-15 -5.59552e-14
187 1 Ar 10.9174 6.71838 0.839798 1.64072 -1.10095 0.801615 -4.80171e-14 -3.26128e-15 1.06581e-14
189 1 Ar 11.7572 6.71838 0 1.44669 -0.89226 1.7622 4.67681e-14 -2.69923e-15 -5.77316e-14
192 1 Ar 11.7572 7.55818 0.839798 1.81633 -2.05074 1.13265 4.89053e-14 6.83481e-15 9.32587e-15
190 1 Ar 12.597 7.55818 0 -1.12706 0.377606 0.702887 -6.68215e-15 7.58421e-15 -5.41789e-14
191 1 Ar 12.597 6.71838 0.839798 -1.71052 -0.993431 1.75634 -6.63358e-15 -2.44943e-15 1.11022e-14
193 1 Ar 13.4368 6.71838 0 1.01869 0.54999 0.536221 -2.56739e-16 -3.10169e-15 -5.68434e-14
196 1 Ar 13.4368 7.55818 0.839798 0.893157 1.43871 1.76237 1.17961e-16 6.7793e-15 9.10383e-15
194 1 Ar 14.2766 7.55818 0 1.51111 -1.08689 0.33844 6.0299e-15 6.30745e-15 -5.32907e-14
195 1 Ar 14.2766 6.71838 0.839798 2.03914 -0.619654 -1.68179 6.95277e-15 -3.39312e-15 1.08802e-14
197 1 Ar 15.1164 6.71838 0 1.73128 -1.74247 0.643414 -5.28466e-14 -2.6229e-15 -5.92582e-14
200 1 Ar 15.1164 7.55818 0.839798 1.54068 0.987264 -1.63271 -5.48589e-14 6.14786e-15 9.24261e-15
198 1 Ar 15.9562 7.55818 0 1.19533 0.082412 0.961064 9.28146e-14 5.91194e-15 -6.03961e-14
199 1 Ar 15.9562 6.71838 0.839798 1.90237 1.73544 1.84692 9.30367e-14 -2.44249e-15 1.05471e-14
201 1 Ar 0 8.39798 0 0.969035 -0.687965 0.725114 -6.30607e-14 -4.66294e-14 -6.21725e-14
203 1 Ar 0.839798 8.39798 0.839798 -0.625567 -0.988546 -0.737544 9.54792e-15 -4.94882e-14 9.42302e-15
205 1 Ar 1.6796 8.39798 0 -1.19877 0.667701 -0.660957 1.38778e-17 -4.71498e-14 -6.03961e-14
207 1 Ar 2.51939 8.39798 0.839798 0.448486 1.94971 -0.612113 -1.42941e-15 -5.02029e-14 9.10383e-15
209 1 Ar 3.35919 8.39798 0 1.94608 0.350743 1.80446 1.21847e-14 -4.68584e-14 -5.86198e-14
211 1 Ar 4.19899 8.39798 0.839798 -2.10635 -0.238907 2.03299 -2.22392e-14 -4.7129e-14 9.54792e-15
213 1 Ar 5.03879 8.39798 0 1.2605 -0.147354 1.11003 -2.77556e-17 -4.44297e-14 -6.12843e-14
215 1 Ar 5.87859 8.39798 0.839798 -0.505715 -0.0452208 0.356865 2.12816e-14 -4.72192e-14 9.99201e-15
217 1 Ar 6.71838 8.39798 0 0.0883845 -1.62149 -0.588563 -3.17107e-15 -4.63032e-14 -5.50671e-14
219 1 Ar 7.55818 8.39798 0.839798 -1.32055 1.12949 -1.0471 6.55032e-15 -4.93217e-14 1.13243e-14
221 1 Ar 8.39798 8.39798 0 -1.14835 -2.07322 -0.336412 -4.7129e-14 -4.72955e-14 -6.12843e-14
223 1 Ar 9.23778 8.39798 0.839798 -0.499348 1.22087 -0.634999 4.89678e-14 -4.78992e-14 9.32587e-15
225 1 Ar 10.0776 8.39798 0 0.0534653 -0.562935 -0.11427 1.17961e-16 -4.61575e-14 -5.77316e-14
227 1 Ar 10.9174 8.39798 0.839798 0.282285 0.299217 -1.3001 -4.8718e-14 -4.82947e-14 1.11022e-14
229 1 Ar 11.7572 8.39798 0 -1.29939 1.51045 1.97285 4.72261e-14 -4.63796e-14 -6.03961e-14
231 1 Ar 12.597 8.39798 0.839798 -1.54858 0.950528 -1.5097 -6.53644e-15 -4.83433e-14 9.99201e-15
233 1 Ar 13.4368 8.39798 0 0.839522 0.953965 1.27369 -2.08167e-17 -4.64628e-14 -5.68434e-14
235 1 Ar 14.2766 8.39798 0.839798 -0.76023 -1.31408 1.35041 6.55032e-15 -4.8489e-14 1.13243e-14
237 1 Ar 15.1164 8.39798 0 0.779392 1.27797 -1.24912 -5.35127e-14 -4.6782e-14 -6.03684e-14
239 1 Ar 15.9562 8.39798 0.839798 -0.93037 -1.49933 1.02659 9.50351e-14 -4.72955e-14 1.11022e-14
202 1 Ar 0.839798 9.23778 0 -0.357082 -1.79377 1.24606 9.32587e-15 4.80102e-14 -6.1659e-14
204 1 Ar 0 9.23778 0.839798 0.475345 0.792257 -1.01171 -6.12843e-14 4.74898e-14 9.99201e-15
241 1 Ar 0 10.0776 0 0.751938 0.913701 1.3303 -6.30607e-14 4.44089e-16 -6.03961e-14
243 1 Ar 0.839798 10.0776 0.839798 -1.89754 -1.44115 1.75849 8.99281e-15 1.58207e-15 1.09773e-14
206 1 Ar 2.51939 9.23778 0 1.81304 1.94045 0.157897 -1.64452e-15 4.81906e-14 -6.21725e-14
208 1 Ar 1.6796 9.23778 0.839798 -2.09348 0.387436 0.962073 -3.46945e-17 4.95576e-14 1.22125e-14
245 1 Ar 1.6796 10.0776 0 -0.563752 1.6182 -1.72427 -1.45717e-16 -2.28983e-16 -5.9508e-14
247 1 Ar 2.51939 10.0776 0.839798 0.356094 1.46394 -1.43721 -1.72085e-15 1.0339e-15 1.02141e-14
210 1 Ar 4.19899 9.23778 0 -1.46229 0.388423 0.62409 -2.1122e-14 4.55122e-14 -5.9508e-14
212 1 Ar 3.35919 9.23778 0.839798 -1.24159 0.109786 -0.0167135 1.36835e-14 4.90163e-14 1.28786e-14
249 1 Ar 3.35919 10.0776 0 1.74024 0.77024 1.17263 1.13451e-14 7.42462e-16 -5.77316e-14
251 1 Ar 4.19899 10.0776 0.839798 -0.225696 -1.55986 -1.14277 -2.41057e-14 9.02056e-17 1.02141e-14
214 1 Ar 5.87859 9.23778 0 1.59696 -0.606363 1.7406 1.95052e-14 4.68445e-14 -6.03961e-14
216 1 Ar 5.03879 9.23778 0.839798 -1.29225 -1.06909 -0.875986 -2.91434e-16 4.57551e-14 1.24345e-14
253 1 Ar 5.03879 10.0776 0 0.804814 1.33967 -0.484264 2.77556e-17 -2.28983e-16 -6.12843e-14
255 1 Ar 5.87859 10.0776 0.839798 -0.313602 1.45067 -0.357224 2.26e-14 1.04777e-15 9.99201e-15
218 1 Ar 7.55818 9.23778 0 0.348097 -1.81866 1.70682 6.94583e-15 4.62755e-14 -5.86198e-14
220 1 Ar 6.71838 9.23778 0.839798 0.372873 0.0784871 -1.55632 -2.35229e-15 4.79061e-14 1.11022e-14
257 1 Ar 6.71838 10.0776 0 1.68727 -1.21024 -0.191337 -2.61596e-15 -4.78784e-16 -5.50671e-14
259 1 Ar 7.55818 10.0776 0.839798 -1.32519 -0.734038 0.425716 6.37684e-15 -6.93889e-18 9.10383e-15
224 1 Ar 8.39798 9.23778 0.839798 -1.82353 -1.27972 -0.654015 -4.88984e-14 4.81698e-14 9.99201e-15
261 1 Ar 8.39798 10.0776 0 -0.40567 -2.05279 0.363487 -4.71012e-14 2.498e-16 -5.86198e-14
222 1 Ar 9.23778 9.23778 0 -0.0391253 -0.158862 -1.96324 4.72539e-14 4.78159e-14 -6.12843e-14
228 1 Ar 10.0776 9.23778 0.839798 -0.706138 -1.60299 1.49014 1.59595e-16 4.87319e-14 1.06581e-14
263 1 Ar 9.23778 10.0776 0.839798 -0.710967 1.82082 -1.28024 4.84127e-14 -1.45717e-16 9.99201e-15
265 1 Ar 10.0776 10.0776 0 1.98509 0.32336 -1.58821 -1.73472e-16 6.73073e-16 -5.41789e-14
226 1 Ar 10.9174 9.23778 0 -1.43225 1.93783 -1.558 -4.74829e-14 4.66432e-14 -6.03961e-14
232 1 Ar 11.7572 9.23778 0.839798 -0.103094 -0.90093 -0.142322 4.87874e-14 4.962e-14 1.08802e-14
267 1 Ar 10.9174 10.0776 0.839798 1.24143 0.768367 -0.686927 -4.88706e-14 -1.38778e-17 9.99201e-15
269 1 Ar 11.7572 10.0776 0 1.70151 1.3243 -0.7473 4.66988e-14 6.17562e-16 -5.77316e-14
230 1 Ar 12.597 9.23778 0 -1.20705 1.11287 -1.23874 -5.83561e-15 4.7358e-14 -5.9508e-14
236 1 Ar 13.4368 9.23778 0.839798 -2.0743 1.16129 0.329556 1.17961e-16 4.87874e-14 1.04361e-14
271 1 Ar 12.597 10.0776 0.839798 -0.558587 -0.403195 -1.30288 -6.82093e-15 7.42462e-16 9.99201e-15
273 1 Ar 13.4368 10.0776 0 1.64369 -1.85003 -1.06095 6.93889e-18 2.08167e-17 -5.59552e-14
234 1 Ar 14.2766 9.23778 0 -1.49149 0.247584 -1.98917 6.05765e-15 4.62477e-14 -5.86198e-14
240 1 Ar 15.1164 9.23778 0.839798 -0.70968 -1.91499 -1.45378 -5.51226e-14 4.83363e-14 1.09496e-14
275 1 Ar 14.2766 10.0776 0.839798 0.155863 -1.10593 1.6968 6.1548e-15 -2.28983e-16 8.88178e-15
277 1 Ar 15.1164 10.0776 0 -0.261954 -1.83895 -0.95596 -5.35127e-14 6.17562e-16 -6.02296e-14
238 1 Ar 15.9562 9.23778 0 1.57103 -0.714105 1.29436 9.32587e-14 4.61853e-14 -6.32827e-14
279 1 Ar 15.9562 10.0776 0.839798 -2.09023 -0.0725853 1.49262 9.35918e-14 -3.60822e-16 9.49241e-15
242 1 Ar 0.839798 10.9174 0 -1.79016 1.39177 -0.385347 9.54792e-15 -4.74273e-14 -6.1659e-14
244 1 Ar 0 10.9174 0.839798 0.0168013 0.779659 -1.25554 -6.12843e-14 -4.83225e-14 9.54792e-15
281 1 Ar 0 11.7572 0 1.57708 -0.564045 -1.86003 -6.21725e-14 4.52971e-14 -6.23945e-14
283 1 Ar 0.839798 11.7572 0.839798 -0.0812076 -1.05479 -1.6041 9.4369e-15 5.00711e-14 1.16712e-14
246 1 Ar 2.51939 10.9174 0 1.65695 1.04891 -1.93324 -1.47105e-15 -4.79894e-14 -6.12843e-14
248 1 Ar 1.6796 10.9174 0.839798 0.0566472 -2.07322 -0.293774 1.249e-16 -4.91412e-14 1.02141e-14
285 1 Ar 1.6796 11.7572 0 2.04493 -0.580057 -0.265441 -2.35922e-16 4.88012e-14 -6.12843e-14
287 1 Ar 2.51939 11.7572 0.839798 -0.765746 -0.965308 0.691777 -1.51268e-15 4.89261e-14 1.24345e-14
250 1 Ar 4.19899 10.9174 0 0.364389 1.30307 1.87526 -2.0664e-14 -4.69902e-14 -6.12843e-14
252 1 Ar 3.35919 10.9174 0.839798 -0.155167 -0.527881 1.08432 1.29896e-14 -4.85584e-14 9.32587e-15
289 1 Ar 3.35919 11.7572 0 -1.37094 0.328165 -1.20305 1.16573e-14 4.7691e-14 -6.03961e-14
291 1 Ar 4.19899 11.7572 0.839798 -1.12135 -0.850852 -0.228213 -2.21559e-14 4.74273e-14 1.13243e-14
254 1 Ar 5.87859 10.9174 0 -2.0847 -0.0592017 -1.97958 1.96024e-14 -4.59494e-14 -6.12843e-14
256 1 Ar 5.03879 10.9174 0.839798 1.24661 -1.01812 1.39317 -3.1225e-16 -4.63865e-14 8.43769e-15
293 1 Ar 5.03879 11.7572 0 -1.66046 -1.45979 1.54909 2.08167e-17 4.44575e-14 -6.12843e-14
295 1 Ar 5.87859 11.7572 0.839798 1.43499 1.19601 0.314087 2.15522e-14 4.7469e-14 1.04361e-14
258 1 Ar 7.55818 10.9174 0 1.86562 1.51515 0.576571 7.07767e-15 -4.8031e-14 -5.68434e-14
260 1 Ar 6.71838 10.9174 0.839798 1.15028 -0.0371535 0.590468 -2.90046e-15 -4.81143e-14 1.11022e-14
297 1 Ar 6.71838 11.7572 0 -0.685515 -1.83945 -0.848658 -3.23352e-15 4.66363e-14 -5.86198e-14
299 1 Ar 7.55818 11.7572 0.839798 -1.40431 2.05287 -1.01099 6.245e-15 4.83572e-14 1.08802e-14
264 1 Ar 8.39798 10.9174 0.839798 -1.14299 -0.82518 -0.18982 -4.85445e-14 -4.94535e-14 1.13243e-14
301 1 Ar 8.39798 11.7572 0 -0.502562 -2.03499 -0.640363 -4.68792e-14 4.65183e-14 -6.12843e-14
262 1 Ar 9.23778 10.9174 0 0.0268756 0.905595 0.447753 4.68722e-14 -4.66571e-14 -6.03961e-14
268 1 Ar 10.0776 10.9174 0.839798 1.00588 0.942692 -2.0824 4.02456e-16 -4.87319e-14 1.17684e-14
303 1 Ar 9.23778 11.7572 0.839798 -1.54198 1.9447 -0.274935 4.8711e-14 4.89955e-14 1.08802e-14
305 1 Ar 10.0776 11.7572 0 -1.13537 0.35134 -0.846237 -1.38778e-17 4.72886e-14 -5.9508e-14
266 1 Ar 10.9174 10.9174 0 0.141766 -1.1609 -0.101528 -4.69971e-14 -4.67265e-14 -6.12843e-14
272 1 Ar 11.7572 10.9174 0.839798 -0.941314 0.666852 2.00372 4.85237e-14 -4.80657e-14 1.06581e-14
307 1 Ar 10.9174 11.7572 0.839798 0.428205 -0.512426 -1.41102 -4.8718e-14 4.83502e-14 1.02141e-14
309 1 Ar 11.7572 11.7572 0 -1.96265 -0.248883 -0.669546 4.68584e-14 4.74829e-14 -6.03961e-14
270 1 Ar 12.597 10.9174 0 1.46534 -0.417661 0.887681 -6.07847e-15 -4.67543e-14 -5.9508e-14
276 1 Ar 13.4368 10.9174 0.839798 -0.638617 -0.370003 -1.7785 4.71845e-16 -4.83433e-14 9.76996e-15
311 1 Ar 12.597 11.7572 0.839798 -1.73904 1.89869 0.48063 -6.39766e-15 4.87735e-14 1.06581e-14
313 1 Ar 13.4368 11.7572 0 0.0418271 -1.59546 1.17617 -3.05311e-16 4.7691e-14 -5.9508e-14
274 1 Ar 14.2766 10.9174 0 0.28072 -0.61641 2.0751 7.07767e-15 -4.70873e-14 -5.77316e-14
280 1 Ar 15.1164 10.9174 0.839798 -1.92641 -0.249688 -1.49928 -5.52058e-14 -4.87388e-14 1.11577e-14
315 1 Ar 14.2766 11.7572 0.839798 -1.4349 -0.37047 -1.16891 6.245e-15 4.7802e-14 1.04361e-14
317 1 Ar 15.1164 11.7572 0 0.371581 -0.497166 1.27276 -5.34572e-14 4.73233e-14 -6.31162e-14
278 1 Ar 15.9562 10.9174 0 1.05064 0.47473 0.358831 9.41469e-14 -4.66294e-14 -6.4837e-14
319 1 Ar 15.9562 11.7572 0.839798 -0.296399 -1.27813 0.723681 9.448e-14 4.72122e-14 8.77076e-15
282 1 Ar 0.839798 12.597 0 -0.112598 0.0868458 -0.655281 9.32587e-15 -5.50948e-15 -5.80508e-14
284 1 Ar 0 12.597 0.839798 -0.433663 1.21445 1.3796 -6.03961e-14 -6.02296e-15 1.08802e-14
321 1 Ar 0 13.4368 0 -0.0946005 -1.97009 -1.16326 -6.12843e-14 -2.22045e-16 -5.92859e-14
323 1 Ar 0.839798 13.4368 0.839798 -1.31885 0.0856464 0.334495 8.65974e-15 9.15934e-16 1.14214e-14
286 1 Ar 2.51939 12.597 0 -0.0393433 0.407489 -0.395346 -1.64452e-15 -6.57113e-15 -5.86198e-14
288 1 Ar 1.6796 12.597 0.839798 1.90567 -2.09377 1.19064 -2.56739e-16 -6.53644e-15 1.22125e-14
325 1 Ar 1.6796 13.4368 0 0.977977 1.55782 -1.23782 -2.15106e-16 8.11851e-16 -5.9508e-14
327 1 Ar 2.51939 13.4368 0.839798 -0.503028 -1.4107 1.82985 -1.72778e-15 2.70617e-16 1.06581e-14
290 1 Ar 4.19899 12.597 0 1.89741 -1.36155 -1.23066 -2.20379e-14 -6.55725e-15 -5.86198e-14
292 1 Ar 3.35919 12.597 0.839798 -0.366809 -0.304398 1.08316 1.35031e-14 -6.46705e-15 1.17684e-14
329 1 Ar 3.35919 13.4368 0 -1.59228 -1.84574 -0.833721 1.12202e-14 -7.63278e-17 -5.86198e-14
331 1 Ar 4.19899 13.4368 0.839798 0.462352 -1.87287 -0.0159082 -2.39947e-14 3.26128e-16 9.76996e-15
294 1 Ar 5.87859 12.597 0 -0.16943 0.863573 0.566669 2.08653e-14 -6.30745e-15 -5.86198e-14
296 1 Ar 5.03879 12.597 0.839798 -1.19073 0.559602 1.35477 -2.91434e-16 -5.64826e-15 1.15463e-14
333 1 Ar 5.03879 13.4368 0 0.139317 -0.0198458 -0.37689 4.16334e-17 7.63278e-17 -6.12843e-14
335 1 Ar 5.87859 13.4368 0.839798 1.61974 1.65885 0.52111 2.22947e-14 3.40006e-16 1.04361e-14
298 1 Ar 7.55818 12.597 0 -1.66337 0.471277 1.53669 6.94583e-15 -6.93196e-15 -5.50671e-14
300 1 Ar 6.71838 12.597 0.839798 -1.76732 0.259268 -0.192736 -2.13024e-15 -6.71685e-15 1.15463e-14