ITEM: TIMESTEP
10000
ITEM: NUMBER OF ATOMS
4000
ITEM: BOX BOUNDS pp pp pp
0.0000000000000000e+00 1.6795961913825074e+01
0.0000000000000000e+00 1.6795961913825074e+01
0.0000000000000000e+00 1.6795961913825074e+01
ITEM: ATOMS id type element x y z vx vy vz fx fy fz
798 1 Ar 0.376327 0.590317 0.142532 -0.41553 0.374538 -1.78005 -2.49669 2.18115 4.92358
12 1 Ar 1.37369 1.06288 0.751054 0.930899 0.0649712 0.666356 -4.71523 -19.3855 -6.36808
764 1 Ar 0.00799856 1.40885 0.949317 0.417045 -0.455401 -0.515514 4.78041 9.25396 -2.09163
816 1 Ar 0.695042 0.593025 1.44843 0.271961 0.833123 -0.197347 -13.4558 6.36556 -2.8683
878 1 Ar 2.364 1.02549 1.27393 -0.542751 0.715513 -0.705862 -19.0553 7.51741 -7.43444
3929 1 Ar 2.63746 0.250381 0.479657 -0.398185 0.087776 -0.5312 0.995621 5.2926 -3.77227
9 1 Ar 2.20857 1.12531 0.110303 -1.28449 -1.16463 -0.592133 17.1165 0.244126 11.1463
47 1 Ar 3.17259 1.24428 0.610709 1.01341 0.32479 0.593464 -16.6062 20.0382 34.6698
489 1 Ar 4.521 0.860895 1.02811 -0.0466982 -0.902083 -1.48552 -27.648 18.8605 -0.516111
411 1 Ar 3.58989 0.285952 0.858255 0.859546 -0.144666 -0.163953 6.92473 36.5657 21.8492
457 1 Ar 5.09999 0.720113 0.115985 0.127058 -1.25939 -0.363848 2.20892 -14.8851 -5.61603
774 1 Ar 5.4591 1.45723 0.748823 0.410833 -0.133017 -0.680958 11.9263 0.601373 9.96137
740 1 Ar 5.96937 0.347968 1.16112 0.533534 2.36165 0.144904 -3.56101 13.6511 -5.49091
334 1 Ar 7.33356 0.422029 0.574484 0.221792 0.919803 -1.15452 -5.36463 3.17437 4.38481
460 1 Ar 6.63403 1.24207 0.93049 0.147786 1.93788 0.35455 -10.3876 -7.36818 -13.4405
3255 1 Ar 6.20459 0.710358 0.133642 -0.267958 1.1312 -1.24483 3.98682 -9.25017 5.41346
58 1 Ar 8.37155 0.95724 0.660756 0.537765 -0.158231 -1.15708 6.33241 -1.5909 -2.49411
21 1 Ar 9.51727 0.733626 0.757936 -0.871764 -0.550825 -0.98825 13.9089 16.4333 -23.5201
869 1 Ar 10.2987 1.12872 1.32131 -0.503805 -0.165185 0.512378 1.95097 5.95627 -2.9854
474 1 Ar 10.938 0.718897 0.55909 0.733701 -1.79126 -0.437223 -3.78294 0.719659 -2.87212
29 1 Ar 11.8889 0.932033 0.98128 0.209113 -0.0153651 0.592606 4.37888 22.2901 -2.01115
388 1 Ar 12.6888 0.36014 0.628054 -1.02415 -0.952165 0.0425205 17.2154 9.00561 12.0412
109 1 Ar 12.8865 1.28115 1.34979 -1.29734 0.962751 1.27315 -13.2842 -11.6245 11.7521
3631 1 Ar 13.6456 0.250077 0.0305573 0.905352 -1.96478 -0.708813 16.9977 21.6323 -25.305
429 1 Ar 14.0167 1.47421 0.65075 0.837132 0.897333 1.28516 8.25201 -1.79435 -5.13316
33 1 Ar 14.7386 0.611669 0.182579 -1.27386 0.0327472 0.3359 -9.89014 6.79945 -3.27211
754 1 Ar 13.763 0.579482 1.02832 0.594128 0.927245 0.983615 -18.6953 -1.89284 14.4356
438 1 Ar 15.7147 1.38065 1.27263 -0.232851 0.885698 0.379066 0.252767 8.16541 -6.31831
434 1 Ar 15.9516 1.0521 0.169755 -0.252839 -0.464151 0.1153 -37.1272 -15.1297 41.911
44 1 Ar 16.343 0.492361 1.02437 -0.0350071 -1.4572 0.66959 -4.73925 -17.3503 3.18719
452 1 Ar 1.38266 2.78926 1.03989 1.43731 1.89745 -0.396224 -13.1025 -2.47178 -4.18571
404 1 Ar 0.694367 2.16629 0.42025 -0.463822 -0.505781 -1.06537 -25.3964 -7.3861 7.10837
449 1 Ar 0.913768 1.61328 1.49093 0.460156 1.01817 -0.316402 -1.14323 2.21941 -8.58002
437 1 Ar 0.30269 2.53048 1.50545 -0.160988 -0.573505 -0.722388 -4.30002 -1.26857 -3.55846
479 1 Ar 1.6834 1.98044 0.396195 -0.0115794 0.342964 -0.455159 7.635 8.5122 -2.29625
558 1 Ar 2.51481 2.21154 1.06793 -0.203913 1.67406 0.524406 4.37237 -29.8917 -10.8416
413 1 Ar 3.69928 2.72487 0.548458 0.863762 2.06338 -0.975054 -8.91298 1.94206 -17.4709
414 1 Ar 4.19306 1.73596 0.61444 -0.874788 0.0980048 0.565386 0.140122 2.87988 -15.3683
811 1 Ar 3.70474 2.22754 1.44832 -0.477094 0.136521 -1.40245 1.7876 -5.37558 -8.26983
500 1 Ar 4.77109 2.04959 1.39547 0.106744 -0.539767 1.3397 3.71417 7.75577 2.00417
15 1 Ar 5.12226 2.26953 0.17946 0.538285 -0.241469 1.07698 -5.97006 0.460392 9.91695
133 1 Ar 5.64034 2.97706 1.00224 -0.284741 0.198847 0.81283 16.634 -13.1174 16.8364
529 1 Ar 4.63398 2.98749 0.842272 0.419293 0.743784 1.40775 -2.52756 10.4906 4.20248
95 1 Ar 6.5056 2.26598 1.3588 0.907229 1.08897 0.496748 0.274621 28.5245 -21.7068
3661 1 Ar 7.59699 1.75711 0.656835 -0.679047 1.63739 0.143403 -10.8276 -4.41712 13.4953
3975 1 Ar 6.49569 2.14258 0.276929 -0.486987 0.130901 -0.337395 2.39626 -7.09187 -2.45129
62 1 Ar 7.49419 2.68908 0.121579 -0.6699 -0.875654 -0.809908 -20.4097 13.9243 37.3748
379 1 Ar 8.46329 2.40085 0.815727 0.0433737 0.292958 0.87711 15.6263 6.60823 -15.043
64 1 Ar 7.67523 2.53231 1.41365 -1.36114 0.362356 -0.936428 -21.153 7.62409 16.7534
3624 1 Ar 8.96989 1.84843 0.0483257 0.0108775 -0.924588 -0.142988 19.3623 5.17219 3.49499
3697 1 Ar 8.97851 3.00885 0.143276 -0.389693 -0.732429 -0.324617 -23.5226 -26.326 -19.2909
103 1 Ar 9.51198 1.81492 1.31943 -0.395385 -0.404009 0.206846 -9.55142 3.4328 -4.37293
432 1 Ar 10.2918 2.62114 0.627777 -1.8674 -0.496353 -0.388317 -4.65702 7.32446 5.2098
31 1 Ar 10.8719 1.75418 0.722131 -0.160136 1.0667 0.527876 9.53259 7.99731 -0.874954
71 1 Ar 11.7183 1.7169 0.0580369 0.699258 -0.945726 -1.02741 -6.09073 1.08409 22.8783
473 1 Ar 12.0996 2.00351 1.12992 -0.0136215 -0.738431 -0.0796316 -16.3125 -5.90389 -11.0271
591 1 Ar 11.4084 2.74957 0.470325 -0.120653 0.500967 -2.16927 -35.1688 3.08824 3.96517
469 1 Ar 12.9912 1.73922 0.464759 -1.51912 0.68702 -0.0263096 -4.44295 15.3654 -16.4232
1310 1 Ar 13.6621 2.14383 1.39516 0.0420661 -0.513421 -0.0727947 -14.5812 -7.31615 -3.54374
70 1 Ar 12.3351 2.59796 0.181047 0.417873 0.560233 -1.11878 33.6435 0.580307 -10.1311
35 1 Ar 14.7583 1.97931 1.41901 0.195772 1.10482 -0.894876 9.11269 -20.9758 -33.4871
83 1 Ar 15.2047 1.82207 0.34773 0.0107724 -1.65354 0.523126 3.53577 -0.308527 -0.107176
3716 1 Ar 15.1351 2.87515 0.888888 -0.710036 0.0182184 0.590453 16.9622 10.5737 9.55523
78 1 Ar 14.337 2.43813 0.479045 -0.188309 0.331536 0.735775 -22.7178 15.3657 -0.759803
441 1 Ar 16.236 2.27759 0.585597 -0.0531144 0.997862 0.675367 -0.659411 -5.25882 -6.83497
402 1 Ar 16.1179 3.04494 1.31239 -0.21162 0.557707 -0.146484 -1.28962 9.76673 1.27555
523 1 Ar 0.163788 3.13039 0.632682 0.359568 -0.972369 0.204464 -13.4824 -9.34949 11.63
48 1 Ar 1.03437 3.77729 0.460855 -0.783516 0.341135 -0.922623 1.27048 41.3858 40.4468
1134 1 Ar 2.79086 3.12652 0.81068 0.719818 0.643077 1.57634 7.18482 28.1724 1.61279
448 1 Ar 1.549 3.79042 1.45159 0.627054 0.13352 0.348977 -24.9957 10.2385 -5.43443
82 1 Ar 1.96022 3.26061 0.214662 0.614028 -0.63333 0.531047 -6.45335 4.68798 -3.58452
128 1 Ar 1.86222 4.40338 0.331531 0.163442 0.45513 -0.0421571 3.33819 3.83395 2.57155
3731 1 Ar 3.66174 3.84763 0.900085 -1.47644 -0.863133 0.653902 -3.30518 -2.82173 10.6421
132 1 Ar 4.41109 3.86322 0.165449 0.941841 -2.71883 -1.15982 20.7544 -20.7854 -0.736853
129 1 Ar 4.95806 4.21216 1.0236 0.851043 -0.366529 0.116182 3.05761 3.80281 -1.78959
490 1 Ar 5.55474 3.62782 0.210934 0.88645 -0.697442 -0.330919 -5.39818 4.55225 -9.26049
3695 1 Ar 7.15635 3.54862 1.36392 0.680422 -0.0965335 -0.554631 1.98796 -3.12102 -2.31471
90 1 Ar 6.16666 3.95312 1.0946 -0.426569 -0.793681 -0.774014 0.649798 -21.2339 -9.81453
136 1 Ar 6.56486 3.20623 0.37767 -0.0469644 0.347383 0.653009 -4.73252 -3.19337 -0.828574
3737 1 Ar 7.13338 4.08306 0.424294 0.691364 -0.442378 -1.10479 -10.4388 12.1995 -8.1898
97 1 Ar 9.00205 3.48492 1.10692 -0.181267 -0.863798 0.964083 8.69328 -13.4233 0.481792
3655 1 Ar 8.659 4.37319 0.364621 -0.818079 0.161555 0.330727 12.0157 10.3775 2.91879
3694 1 Ar 8.02675 3.5964 0.66887 -1.02952 1.96402 1.61976 0.0366891 -17.2718 10.4243
135 1 Ar 9.62798 3.72332 0.255454 1.00791 -0.0424698 0.704256 16.8916 21.0181 -1.63288
506 1 Ar 10.4651 4.28549 0.377547 0.0769859 1.28406 -0.0692246 -10.6411 18.5646 -27.3861
912 1 Ar 10.7845 3.56533 0.978213 2.03323 0.196618 -0.262634 8.17625 -5.01823 -1.2371
73 1 Ar 11.872 3.096 1.36261 -1.89901 -0.34296 -1.00698 1.31985 -10.2046 -2.4643
66 1 Ar 11.5225 4.15418 0.176657 0.0256602 0.70667 -0.635147 1.37324 1.07282 -1.54813
1194 1 Ar 13.3335 3.06686 0.657774 0.438828 0.726073 -0.133163 -2.47111 -7.82446 1.51249
3747 1 Ar 12.4503 3.758 0.612226 -0.797441 -1.25233 -0.535587 -3.80928 -10.0346 -1.27533
146 1 Ar 13.993 3.8997 0.533583 -0.0179004 -1.52285 1.23827 -9.68512 -1.44392 -4.62307
3714 1 Ar 14.3406 4.3554 1.37649 1.02368 -0.603948 0.881939 5.69893 4.73893 8.94197
36 1 Ar 15.8727 3.2415 0.101974 0.183223 -0.091574 -0.115475 7.6497 -16.9113 7.57059
115 1 Ar 15.5198 3.9277 0.89791 0.254737 0.272529 0.108328 -47.2649 -9.34265 -17.6604
154 1 Ar 16.4946 4.034 0.737023 -1.10225 -1.15809 0.205476 18.8731 -11.9725 -9.70438
123 1 Ar 0.579854 5.85471 0.939622 -0.680129 -0.659649 1.38659 -1.23802 -19.1106 -21.6688
524 1 Ar 0.941392 4.8011 0.949686 -1.28615 0.109782 0.0544795 0.98578 -3.03061 1.32724
486 1 Ar 2.86673 4.59891 0.651998 0.812265 1.86514 1.40722 7.30552 1.10812 9.4325
571 1 Ar 1.5686 5.99591 0.426057 -0.0978283 -0.233606 0.247865 -3.2338 -2.27454 -7.49682
157 1 Ar 2.05895 5.25654 1.10692 -0.205806 -0.717132 -0.638177 -2.23885 -0.797642 7.22644
526 1 Ar 2.42674 5.43398 0.156121 0.733462 -0.718036 0.615791 9.19592 3.49091 -16.2512
653 1 Ar 3.37117 5.7935 0.765094 -0.771427 -0.441971 -0.0956698 -10.0245 6.86643 -2.36914
3775 1 Ar 3.94397 4.93714 0.920462 -0.651385 -0.975163 0.544386 9.46752 -6.34411 4.96685
3692 1 Ar 5.90442 4.88658 1.44903 -0.0115597 -0.190457 -1.11111 -15.2194 14.5378 1.02457
174 1 Ar 4.86397 5.43873 1.42836 1.00455 0.186305 0.431449 1.36096 -2.84428 3.753
3296 1 Ar 5.13628 5.16604 0.385043 -0.298185 1.45331 0.0687052 -14.336 3.37577 3.38993
1377 1 Ar 5.69026 6.07589 0.97054 -0.549589 0.464855 -1.10536 -13.0463 -21.8308 11.5352
3776 1 Ar 5.99201 4.6087 0.322104 0.612843 1.92437 0.315254 12.1375 2.99294 -13.9295
3735 1 Ar 6.80715 5.03394 0.926114 -1.40047 -0.360053 -0.60585 -22.7982 10.3894 -33.0489
3779 1 Ar 6.33878 6.10213 0.177837 -2.44886 -1.11874 -0.204082 -1.32314 0.754198 -15.6683
974 1 Ar 7.68441 4.61714 1.14718 -0.854772 -0.234509 0.585124 30.54 -14.85 14.942
3740 1 Ar 8.02426 5.64089 1.03479 0.218225 -1.02 -0.972447 -19.4699 4.11262 -10.0183
180 1 Ar 9.02727 5.48895 1.10584 -0.362128 -1.23331 0.825411 10.8155 -28.6044 7.9925
104 1 Ar 9.99963 5.23541 0.815976 -0.840618 -0.762909 -0.0503494 13.8541 7.02272 14.7566
106 1 Ar 10.9443 4.74042 1.12604 -0.989078 -0.129118 0.390555 15.8492 17.3037 11.0627
191 1 Ar 12.1352 4.84581 0.907019 0.399667 0.825713 0.670705 -21.6724 19.7022 -11.5757
950 1 Ar 10.9218 5.92764 0.743362 -0.933622 -0.552753 1.02196 0.00628782 -7.21299 -11.1813
148 1 Ar 12.4622 5.94049 1.43423 0.964615 -0.150954 0.292501 -0.167597 -1.0515 1.10367
155 1 Ar 13.1303 4.78154 0.749698 0.10428 -0.188348 -1.02109 21.0098 -3.88344 -3.20745
151 1 Ar 13.5373 6.10193 1.46642 1.31328 -0.182795 -1.241 11.7444 -3.53585 -11.736
156 1 Ar 13.069 5.88958 0.493384 0.167312 0.555472 0.699938 12.9428 6.94891 22.0553
150 1 Ar 14.2664 5.41796 1.04004 -0.219985 0.342251 -0.360234 0.975739 4.12346 6.94666
3682 1 Ar 14.762 4.74817 0.387114 -0.118328 0.685429 -0.247662 9.60887 -4.82755 -3.15412
72 1 Ar 13.8525 5.27146 0.0835858 -0.433461 0.75873 0.057834 -2.10801 -13.0701 -5.38026
3642 1 Ar 15.8653 5.0452 0.824569 0.296543 0.135413 -1.31912 -37.1738 -17.9682 16.1265
200 1 Ar 16.7433 5.16935 1.43761 0.344051 0.603005 0.826873 9.78006 -3.6056 -5.34664
3292 1 Ar 16.7028 4.90418 0.310438 0.383247 -0.150115 0.705724 36.2776 5.31972 -30.8665
605 1 Ar 16.3192 5.84061 0.42442 0.0722223 0.129968 0.1521 -6.95313 -3.1996 24.8447
159 1 Ar 15.332 6.03151 0.871935 -2.59195 0.727114 -0.801645 -10.6526 -0.683373 1.89824
599 1 Ar 0.00206236 6.71967 0.365993 -0.515555 0.0494853 -0.936936 9.35933 28.0632 1.54481
173 1 Ar 1.28028 6.47237 1.31519 0.00175242 1.21942 -0.548493 12.4111 18.3834 16.3503
211 1 Ar 2.48046 6.61585 1.13936 -2.20498 0.202821 0.747301 -8.24458 -8.15341 3.31753
201 1 Ar 1.82002 7.07004 0.401852 -1.2928 1.43648 1.34342 -17.9566 -15.8689 -1.33631
243 1 Ar 2.66716 7.55203 0.0546428 -0.300575 -0.201225 -0.446771 -4.48944 -6.09127 -2.55317
566 1 Ar 4.43268 6.16961 0.711856 -0.53711 -0.266196 -0.830925 9.10869 -0.372788 -18.4103
3774 1 Ar 3.40815 7.01382 0.882239 0.704166 1.14531 -1.06898 7.74444 4.53389 -18.1974
3817 1 Ar 5.7398 7.08417 0.81671 -0.407712 -0.960873 0.348498 4.74876 13.6148 -3.88616
139 1 Ar 6.78127 6.28379 1.17406 0.0880829 -1.18836 -0.65669 -9.63695 -38.6593 30.4134
220 1 Ar 6.86596 7.00597 0.531511 -0.356897 -0.404528 0.274258 -1.10407 9.57008 -16.9449
215 1 Ar 7.39488 6.27271 0.0667006 0.515354 -0.858457 -2.0128 11.7273 -17.3113 -5.51835
3859 1 Ar 7.74582 6.66896 1.13559 1.61544 0.431873 0.192671 10.7132 12.8092 -3.56066
3700 1 Ar 8.87578 6.35395 0.627334 1.8962 1.34727 -1.63421 -15.0551 14.3002 -5.22885
544 1 Ar 9.89777 6.4518 0.502195 -0.546921 -0.63004 0.65263 10.1774 -3.98741 5.70126
539 1 Ar 10.5656 6.78607 1.24009 0.382884 -0.982886 -2.0563 8.56672 7.81573 -6.31956
3785 1 Ar 9.40867 7.15863 1.11744 -0.282385 -0.180309 -0.569892 -9.85959 42.5747 -18.0151
3828 1 Ar 10.2202 7.58278 0.396353 -0.252433 0.73236 0.28465 -23.7032 5.6755 0.800942
3836 1 Ar 11.0977 7.13799 0.139357 -0.608178 0.105683 0.88474 11.458 -30.032 1.74613
627 1 Ar 11.7056 6.85832 1.02396 -0.189318 0.645175 -0.350511 -10.5632 -2.78326 1.43268
989 1 Ar 13.3515 6.88745 0.0459747 0.487598 -0.390121 -0.909121 7.35183 14.1922 0.821542
1074 1 Ar 12.7467 6.87438 0.888165 -0.696272 -0.012247 -0.903016 1.60419 0.37091 9.76578
196 1 Ar 13.7683 7.26081 0.951665 0.295076 -0.0978348 0.487475 -7.92891 4.41653 19.8186
993 1 Ar 15.0228 7.1349 0.390366 1.18279 0.23737 1.03935 -4.12967 10.1961 10.2703
190 1 Ar 14.2594 6.42188 0.622556 -0.315398 0.49635 -0.539877 -2.98738 -16.2172 -18.1358
3790 1 Ar 16.0072 7.50429 0.0819605 0.00866646 0.321792 -1.57376 14.7928 11.3808 6.76536
564 1 Ar 16.7099 6.43674 1.42764 -0.742001 -0.292622 -1.06163 2.7011 24.0605 -11.3239
960 1 Ar 15.6298 6.97746 1.37092 1.10797 0.185863 0.409136 2.74218 -4.56448 -6.18905
158 1 Ar 16.5716 7.54035 1.04935 -0.404454 -1.59424 1.0808 -33.6194 -12.3131 0.361735
3758 1 Ar 0.733479 7.64687 0.861071 1.62749 -1.02435 -0.56114 35.7771 3.45901 -6.31327
164 1 Ar 1.23422 8.73702 1.20209 -0.0961922 -0.354736 0.110236 -3.26239 -26.9926 -8.3789
963 1 Ar 2.04611 7.77239 1.11074 1.39992 0.433387 1.33919 -9.92884 -1.9197 6.9407
238 1 Ar 1.61448 8.2431 0.293962 0.235705 0.574638 -1.33098 -3.1584 -5.70849 -10.4357
607 1 Ar 2.98468 8.09269 1.32092 0.535558 0.270383 -0.16415 14.2348 -19.4286 16.6059
167 1 Ar 2.55812 8.77219 0.679352 0.259425 -2.17319 -0.724739 -15.1998 5.99937 -3.51452
647 1 Ar 3.57071 8.9202 1.1784 0.461413 -1.2337 0.235478 2.08803 8.81047 -0.313712
621 1 Ar 4.44008 7.82052 0.300483 -0.118561 -1.36549 1.05329 -16.9841 1.76525 12.3593
242 1 Ar 3.44801 8.14579 0.269229 -0.365165 2.21267 0.0334605 6.1106 17.9121 6.97857
569 1 Ar 5.43368 8.0992 1.00681 -0.144334 0.108806 -0.0287349 -15.4777 -11.5268 -3.80077
3016 1 Ar 6.06155 8.86121 1.21104 -0.391165 -0.244655 -0.219313 -10.4905 -21.7112 19.9018
3451 1 Ar 5.14904 9.04486 0.609249 -0.589346 -1.17863 0.526992 -2.87115 5.12731 -12.2064
660 1 Ar 6.58115 7.91706 0.741927 -0.527629 -1.15377 0.0381638 -16.8294 32.6601 -3.74432
613 1 Ar 7.47525 8.55371 0.311457 -0.735503 0.144737 0.17008 0.565009 0.0222781 -8.87166
1459 1 Ar 7.29574 8.70642 1.34475 -0.721062 -3.28349 -2.5337 -19.0756 11.3792 1.8304
3904 1 Ar 6.19143 8.70646 0.179419 -0.662536 -0.485749 -0.762168 -7.23182 24.6386 0.0817025
623 1 Ar 8.26525 7.6577 0.691435 0.096705 1.19581 -0.785935 13.017 1.19949 20.1477
3739 1 Ar 8.2827 8.68131 1.09864 -0.445953 0.675547 0.471497 5.53031 -7.26422 8.626
3781 1 Ar 9.33037 8.30289 0.560886 -0.954662 0.410147 1.77391 -5.95903 -1.09446 -7.41659
184 1 Ar 10.2083 8.47618 1.15223 -1.16887 0.319039 -1.32612 -6.53005 0.64113 9.81598
229 1 Ar 10.2956 8.9332 0.191634 0.457834 0.176615 -1.54347 0.680132 -9.80264 -12.7334
186 1 Ar 11.0664 7.85844 0.953059 -0.823538 -0.876771 0.521217 -9.75904 -10.2098 10.2557
152 1 Ar 12.11 7.78293 0.746093 -1.02837 0.168537 -1.9203 4.59849 9.77791 -6.58627
582 1 Ar 11.0613 9.08487 0.975456 -0.821333 -0.240725 0.20553 -17.6373 -7.21905 11.6262
3916 1 Ar 11.7898 9.02439 0.278479 1.06118 -1.21021 0.325138 9.43336 1.98901 -12.6792
1354 1 Ar 13.1737 7.9895 0.344075 0.340812 0.183801 0.652181 -11.1844 -31.568 14.3439
195 1 Ar 13.1412 8.95558 0.137879 1.73343 1.88377 -0.919177 -1.29593 33.4495 4.93065
353 1 Ar 12.5566 8.70155 0.987165 -0.0436574 0.25119 0.529953 3.01661 4.22748 -7.02731
557 1 Ar 13.5606 8.43203 1.31103 0.183485 0.643123 -0.372074 5.72674 -30.4931 -25.5201
988 1 Ar 14.3098 7.95777 0.423813 -0.165936 -0.574692 0.118072 11.411 12.5813 1.23252
193 1 Ar 14.8409 8.80451 0.983091 -1.11405 1.50732 -0.53118 -12.2984 -13.6726 -8.35378
1353 1 Ar 14.7596 7.71045 1.49627 -0.622367 0.700327 -1.10028 -2.49784 19.3394 -12.2995
608 1 Ar 16.5668 8.72282 0.568816 0.999987 0.304351 -1.43257 6.13359 -3.57633 14.6263
3798 1 Ar 15.6329 8.15494 0.892788 -0.73351 0.224147 1.0533 9.87913 -9.19723 1.11867
634 1 Ar 0.975277 10.1878 1.33863 -0.15019 0.0584461 0.0544981 -8.94758 2.04739 22.0093
236 1 Ar 0.0199371 10.2971 0.968838 -0.217211 0.660308 0.348282 4.82611 -39.2075 -11.9099
645 1 Ar 0.882257 10.3786 0.253594 0.962632 0.877531 -1.88311 -19.6234 -1.61025 -19.337
277 1 Ar 0.729919 9.39554 0.609786 0.792024 1.01445 -0.9339 -8.81845 4.50286 -5.77749
717 1 Ar 2.78616 10.2822 1.1093 -0.120045 0.283379 1.35516 -23.9697 -2.61519 -18.6347
206 1 Ar 1.78366 9.65011 0.96563 -0.81569 0.332028 0.996201 10.2442 -6.02673 0.781994
212 1 Ar 2.27307 10.0427 0.113475 -0.908284 1.34681 -1.74535 8.84104 13.2749 -2.60994
217 1 Ar 3.54858 10.5931 0.25603 -0.00168994 0.741522 0.0660508 -1.10303 16.9533 28.7739
297 1 Ar 4.18492 9.74144 0.906736 -0.122441 1.04271 0.310916 2.38332 4.92187 -5.98342
291 1 Ar 3.24303 9.41699 0.18543 0.980196 -0.877625 -0.0338609 -14.3391 -4.13101 3.0551
655 1 Ar 5.19209 10.1696 0.632847 -0.385622 0.69108 -0.173404 0.204819 1.27019 0.632602
294 1 Ar 6.05833 9.88045 0.018722 0.86771 -0.563332 0.835224 4.0563 1.38392 -1.57402
1422 1 Ar 7.3288 10.3084 1.39879 0.514211 -0.218158 1.39126 -4.35015 12.0289 0.417153
665 1 Ar 7.09669 10.4345 0.239981 -0.0953832 1.4491 -1.20389 18.698 -29.7033 -2.01821
581 1 Ar 6.65695 9.53428 0.846975 1.56737 0.298875 0.0721997 24.3762 28.8141 -10.9882
293 1 Ar 6.39904 10.6733 0.908663 0.881372 -0.640628 -0.958024 -12.9208 16.2858 3.53202
3867 1 Ar 7.73772 9.57001 0.833395 -1.46492 -1.4608 -0.417916 -13.5172 -4.82784 -13.4259
260 1 Ar 8.39517 10.5934 0.533563 -0.266358 -0.726037 0.610288 -4.4601 -20.8896 -5.11236
253 1 Ar 8.63895 9.76198 1.28876 -0.533878 0.00702777 0.305772 7.21696 4.81331 20.2753
222 1 Ar 8.61384 9.27911 0.366297 -0.453575 0.380376 -1.27421 12.9139 2.0051 -27.2761
586 1 Ar 10.161 9.75632 0.833992 -1.56542 -1.09615 0.143755 37.0728 -30.2075 8.10789
668 1 Ar 9.57228 10.3519 1.44344 -1.14539 -0.528529 -0.879573 -18.8721 7.37992 12.1498
267 1 Ar 9.30363 10.0453 0.484525 0.421337 0.960121 -0.031717 -27.2702 13.6154 -26.5857
3866 1 Ar 10.5042 10.6631 1.12227 -0.960498 -0.184517 0.947846 16.9979 24.8567 -3.25353
669 1 Ar 11.9338 9.46535 1.39233 0.710347 1.08257 0.881164 9.15117 0.279305 11.0385
626 1 Ar 11.3629 10.0936 0.757326 0.0553891 1.04072 -1.31528 -3.43172 4.9157 -14.2538
230 1 Ar 13.4581 10.2031 0.0571558 2.11753 1.20544 -0.354412 11.9363 -5.86545 18.7783
3830 1 Ar 12.4544 9.88996 0.436702 0.824507 -0.183727 -0.035578 -2.37755 0.637506 11.5635
309 1 Ar 12.9688 9.84235 1.45809 -0.927179 -0.546652 0.119245 -5.44691 7.49035 -4.65469
594 1 Ar 13.8992 9.44536 1.0378 -0.0453278 0.0151495 0.639319 -17.0017 -1.04641 -2.15425
3435 1 Ar 14.201 9.16687 0.0397895 -0.755601 0.805699 0.793448 5.09804 -2.20963 -6.29455
996 1 Ar 13.9929 10.5972 1.33656 -0.273927 0.266582 1.80452 5.79173 -11.1289 -0.280214
3439 1 Ar 14.8097 9.79942 0.746038 0.40995 -0.887628 -0.729534 8.22233 19.0411 -6.30822
274 1 Ar 15.4122 9.37296 0.0168566 -1.01598 0.515336 -0.423377 3.56548 -12.7792 -1.85491
1073 1 Ar 15.9764 10.6013 0.343378 -1.16425 -0.558186 0.0168998 -2.11791 -7.67835 -2.76606
315 1 Ar 15.9395 9.55243 1.00401 -0.247335 0.450106 0.750298 -0.980402 0.746609 -1.04417
241 1 Ar 0.361754 11.2544 0.778922 -0.579719 0.744021 -0.554032 5.5565 -10.3324 -4.63811
685 1 Ar 0.879536 12.0956 0.939843 -1.00204 -0.631772 -0.90534 -7.17011 26.5084 -3.58836
247 1 Ar 2.5118 11.1256 0.462188 -0.833243 0.00993923 0.12136 19.2828 -6.88158 12.1557
648 1 Ar 1.62055 10.7523 0.805951 0.101521 -0.7262 -0.863336 21.4613 4.88946 21.9611
245 1 Ar 1.63484 11.5655 0.191919 0.529184 1.5328 -1.02971 -22.5097 -0.177217 -34.4052
3892 1 Ar 2.63907 12.2011 0.352991 -0.530962 -1.03925 0.928409 9.02926 0.667228 -5.5591
646 1 Ar 1.88786 12.0156 1.0226 0.274946 1.43884 -0.285038 18.3954 3.05026 48.8845
1051 1 Ar 3.30106 11.2118 1.13268 -0.190086 -1.26427 -0.430594 15.0411 5.16717 4.34237
689 1 Ar 4.00366 11.784 0.277329 0.358296 1.07737 -0.680714 -3.63857 -19.6902 -4.74135
1089 1 Ar 4.34664 11.0217 0.964044 -0.95992 -0.0814925 0.30747 -1.60956 5.83998 -8.11275
616 1 Ar 3.77514 12.1313 1.41306 -0.127474 -0.0142304 1.17936 4.08176 -18.7203 -24.5549
1417 1 Ar 4.79881 12.1317 0.860252 -0.154446 0.979868 0.770797 6.23058 -3.52958 10.1023
259 1 Ar 5.42585 11.0843 1.28639 -0.424887 1.23732 -0.111287 6.81321 -9.16126 2.59134
3895 1 Ar 5.94441 11.7438 0.69603 0.345415 -0.21049 -0.515927 25.2675 0.930881 -0.913575
3504 1 Ar 5.18405 11.2152 0.259039 0.0958044 -0.987481 -0.241144 -13.9839 -5.05134 -7.70363
300 1 Ar 7.24369 11.4117 0.0661087 0.655512 -0.278201 -0.834776 -7.4151 15.4004 -4.77712
656 1 Ar 7.05655 11.6122 1.12136 0.704933 -0.396384 1.23984 1.8066 -0.827252 3.53105
302 1 Ar 8.19375 11.5917 0.505813 0.599818 -1.10334 -0.280913 -9.43344 11.3126 16.529
1861 1 Ar 8.18439 11.0106 1.47665 -1.09793 0.120623 0.390921 3.41587 -14.65 0.698435
227 1 Ar 9.99897 10.7384 0.0796004 -0.062329 -0.41871 -0.399142 5.73674 -0.347535 7.03429
3427 1 Ar 9.2802 11.2917 0.743755 1.08411 0.289097 0.0984802 -4.60234 -8.74022 -9.00163
3832 1 Ar 10.3484 11.7195 0.49387 0.47037 -0.171441 1.64566 10.693 0.753463 -28.0658
1461 1 Ar 10.029 11.6028 1.41286 0.0331942 0.672926 -0.697279 13.065 2.81062 33.3169
387 1 Ar 11.2802 11.2111 0.182262 0.989191 0.204023 -0.5951 -21.004 -57.9707 -22.9606
1185 1 Ar 11.618 12.0017 0.57977 0.0793238 0.000314331 -0.977347 8.37421 49.6661 30.7915
1470 1 Ar 12.0842 10.9279 0.934863 -0.839315 1.6028 -0.900918 -78.4669 -1.86652 -1.62677
3864 1 Ar 11.2533 11.4088 1.51591 -1.33969 1.33719 -1.00257 -3.21139 16.832 -6.51851
3512 1 Ar 12.5264 11.6284 0.28932 -0.102222 -0.131502 -0.603716 12.6804 4.8965 -6.05866
351 1 Ar 13.0164 10.9016 0.961819 -0.538435 0.0106187 -0.542298 71.11 -8.76516 -0.00826077
360 1 Ar 14.4587 12.0998 0.198385 0.646935 -0.654655 -0.51523 6.2546 -27.9606 -6.9353
3591 1 Ar 13.8118 11.5935 1.02329 -0.0124807 0.501198 1.1648 13.1047 1.2532 -16.3011
1070 1 Ar 15.1232 10.7759 0.962392 0.055594 -0.685819 0.0377241 13.6528 -3.79338 34.4149
270 1 Ar 14.4694 10.7042 0.222949 -0.888536 -1.61002 -0.644634 -23.5041 14.9471 -6.35387
687 1 Ar 16.238 11.0365 1.25881 0.139551 0.676745 -0.761828 -28.1584 32.1393 18.7349
3884 1 Ar 15.3477 11.6738 0.552032 1.35493 -0.956449 0.721837 11.5336 19.4379 6.15105
275 1 Ar 16.3831 11.6002 0.160136 1.35447 0.689643 1.1578 -6.85166 2.67158 -4.12389
288 1 Ar 0.737644 13.6388 1.30165 1.84409 0.319103 0.340296 -2.9188 -16.5568 23.3781
677 1 Ar 1.52423 12.607 0.26824 1.05335 0.334574 -1.315 -10.6241 12.4228 -19.5603
1171 1 Ar 1.04887 13.6645 0.332198 1.45488 -0.808747 -0.735988 10.3358 -22.5776 -16.514
3879 1 Ar 0.290549 12.4151 0.0616443 -0.180491 -1.37788 -1.14271 3.70582 -4.82839 3.90159
686 1 Ar 2.16571 13.3796 0.505393 -0.497689 0.679455 1.03152 11.0199 10.4797 0.543255
725 1 Ar 1.69746 13.0182 1.37407 0.60341 0.903701 0.381277 -4.72009 12.481 -2.05153
690 1 Ar 3.68321 12.7413 0.338996 -2.23864 0.266891 -0.851213 1.67451 6.04164 12.6583
729 1 Ar 3.15768 13.0936 1.1714 0.846053 0.669821 -1.12339 -6.67392 1.32313 5.72955
285 1 Ar 4.24805 13.0342 1.30088 1.1869 -0.393998 -0.11005 5.76053 4.53703 -19.6446
3215 1 Ar 4.36652 13.5741 0.251172 -1.44265 -0.143504 1.33616 -3.97556 6.24994 6.1346
691 1 Ar 5.70783 12.7323 0.778097 -0.136053 1.38181 0.695103 -11.1914 11.6392 -1.12348
1094 1 Ar 6.42056 13.4186 0.429878 1.07715 0.502343 -0.596787 -5.56283 35.5942 3.58772
339 1 Ar 6.38021 13.2092 1.48709 -0.831589 -0.630105 -0.419482 5.65304 2.66607 3.78794
296 1 Ar 7.30424 12.7029 0.97457 -0.973464 -0.184472 -0.875863 9.66317 -7.60478 25.1562
3056 1 Ar 6.82739 12.5765 0.116693 0.0103947 2.05554 0.325187 -2.71691 -26.4711 -30.3426
3981 1 Ar 7.54031 13.6871 0.714283 -0.0491619 1.60875 1.91922 0.268702 14.0227 -2.12471
1538 1 Ar 8.50017 13.1949 0.904472 0.886664 0.759933 -0.391798 -26.5621 -49.1113 14.8829
301 1 Ar 9.09396 13.4947 0.0362823 -0.220811 -0.0959936 -0.916527 1.47888 -20.9395 -58.2626
3903 1 Ar 9.02891 12.3047 1.02634 1.38875 -0.37902 0.0658788 3.33828 -4.35776 -6.63145
3937 1 Ar 9.77445 12.5737 0.111597 0.700076 0.011309 -0.772528 -1.09202 -7.16858 4.90583
747 1 Ar 9.58256 13.3273 0.885025 0.310175 0.277941 -0.0257118 9.65021 -7.30784 27.4711
346 1 Ar 11.2587 13.3626 0.506828 -0.3881 0.261046 -0.400007 28.2586 -16.1689 -3.10894
263 1 Ar 10.8188 12.4683 1.2247 0.318986 -1.30215 -0.669459 0.0420064 -3.38976 0.214621
707 1 Ar 12.0348 12.7306 1.22085 0.389556 0.407064 -0.0261515 -15.605 5.42672 -18.8315
3912 1 Ar 13.5206 13.5889 1.12799 -1.40766 -0.999716 -0.722821 -13.2863 34.7891 -13.2911
316 1 Ar 13.1847 12.4147 1.08113 1.56177 -2.05258 0.971624 -27.7314 -8.5503 -13.8696
3556 1 Ar 12.3302 12.7805 0.164313 1.15118 -0.236077 -0.203747 -5.50056 -22.0971 18.7913
749 1 Ar 12.4597 13.7186 0.525027 0.819555 -0.666377 0.00259943 -2.18475 13.6556 16.0226
354 1 Ar 13.4614 13.7181 0.0689468 -0.989799 -0.696043 0.981255 8.30112 -9.31995 -15.3782
3947 1 Ar 13.3853 12.3966 0.0608236 -0.072663 1.42851 0.0630485 -1.75681 -4.17971 -11.7416
357 1 Ar 15.0196 13.0951 0.302188 -1.17748 -0.522463 1.49681 18.5468 4.64888 -11.3448
3959 1 Ar 14.1 12.8916 0.675813 0.0768809 -1.12833 0.416226 -10.5539 9.5578 17.6955
321 1 Ar 16.6065 12.2269 1.18308 -0.589707 0.236985 0.522191 -5.91505 -13.4425 -17.564
670 1 Ar 15.4421 12.5914 1.21332 0.857095 0.222487 -0.744399 2.30461 19.2433 -13.1914
726 1 Ar 16.7363 13.3541 0.552565 -0.689216 -0.152548 -0.558331 16.9395 14.3456 -11.1499
244 1 Ar 16.3832 13.2061 1.50607 0.11041 0.799186 -1.81215 1.41122 -1.05252 22.7951
3887 1 Ar 16.0605 12.6498 0.312493 -0.0237114 -0.840849 -1.05344 -18.7667 -22.8398 14.6228
317 1 Ar 0.038056 14.3451 0.952359 -1.64264 0.473474 -0.418376 -60.8359 -1.86036 6.97998
365 1 Ar 0.961971 14.5362 0.826525 -0.100107 -1.54113 -0.9877 52.4749 36.6028 -3.83296
367 1 Ar 1.93117 14.2732 1.13575 -0.871848 0.0911888 -1.3698 21.7489 -5.00794 -24.0071
3 1 Ar 1.88185 14.319 0.00255331 1.03629 -0.653881 0.992528 18.7572 2.85763 8.11722
371 1 Ar 2.74629 15.1231 0.4882 -0.699621 -1.25745 -1.2036 5.72151 -12.3537 -13.4782
3925 1 Ar 3.30955 14.4926 1.45811 1.13528 -1.14859 -0.0724599 -12.6163 -7.02074 40.2258
3531 1 Ar 3.26131 14.0462 0.569025 0.949583 -0.85921 0.228266 -2.93023 -17.3865 -21.3106
326 1 Ar 3.79394 15.0722 0.812832 -0.237335 0.467531 -0.636833 26.1685 18.6823 -10.6107
376 1 Ar 4.65792 14.1823 1.19321 -0.01658 -0.0121728 0.607962 -24.8204 -59.9447 -22.8292
3971 1 Ar 4.96236 15.067 1.04197 0.243261 2.05379 -0.545265 27.4263 65.2504 -25.3912
336 1 Ar 5.76337 14.2082 0.95922 -1.58067 0.313538 1.02371 2.03319 -8.2445 19.3104
340 1 Ar 5.69311 15.0411 0.0120659 0.758507 0.254823 -0.331806 2.42775 -1.83267 15.8447
2816 1 Ar 5.40336 13.8411 0.0973946 -0.817737 -0.673107 0.693714 -14.1315 9.18052 -6.61585
369 1 Ar 4.628 14.6856 0.0675585 -0.589764 0.0816484 -1.17229 17.9697 -4.63269 6.0789
3940 1 Ar 6.26861 15.0905 0.997568 -0.783961 -0.0506045 1.96058 -18.5643 30.035 18.3979
3501 1 Ar 7.02736 14.7399 0.486525 0.462106 0.425642 0.703012 -11.0286 -17.9199 -11.8735
337 1 Ar 8.02395 14.5158 1.46376 0.396426 -0.757757 -1.15745 -2.72447 -11.4778 -15.6698
3979 1 Ar 7.98791 14.7508 0.302116 -0.39608 0.432203 1.02254 37.5783 -3.34338 -7.47475
417 1 Ar 8.84357 15.1771 1.23759 0.407407 -1.25502 -0.575935 -14.5964 38.7083 -25.461
305 1 Ar 8.76691 14.0909 0.725506 0.276511 0.115372 -0.157962 1.46233 80.2851 23.8928
745 1 Ar 9.75453 14.7397 0.745113 -0.684801 0.683182 0.557794 1.0724 2.09372 2.36023
3592 1 Ar 10.4495 13.9003 0.726055 0.200554 -0.0410609 0.415161 -10.3634 18.9274 5.86722
352 1 Ar 11.055 14.8794 0.49685 -0.622274 -0.51705 0.36888 1.67767 -23.6137 -29.8223
3955 1 Ar 12.1941 14.8023 0.536533 -0.402561 0.430627 -1.35084 5.01031 -20.1321 5.64492
307 1 Ar 11.4852 14.4999 1.33719 0.012734 0.582383 1.55876 1.56509 -9.96065 14.5356
681 1 Ar 13.2024 14.4822 0.731652 -0.0611304 -0.994435 0.284941 5.87636 19.9662 -5.12005
722 1 Ar 15.0653 14.7371 0.46748 -0.395482 -0.62047 1.92417 13.1153 20.1407 -3.15111
314 1 Ar 14.4656 13.9807 0.729894 0.687627 -0.673109 -0.562664 -14.7021 -13.1802 1.99561
34 1 Ar 14.0366 15.2251 0.847679 -0.048292 -0.175424 0.819226 9.99472 13.8497 -14.167
3926 1 Ar 15.643 13.7718 1.04334 0.649916 0.860109 -0.0545051 -9.3138 6.76822 -6.68363
724 1 Ar 16.1209 14.9804 0.365386 -0.0501908 0.592399 -0.128409 8.06734 -2.95801 -35.6427
1078 1 Ar 15.9665 14.9544 1.34049 1.0977 -1.01223 0.79338 -5.03194 2.81131 26.6892
758 1 Ar 0.46091 15.377 0.411238 0.968262 2.02738 -0.342752 -17.7658 -9.63347 -0.00535841
1083 1 Ar 0.229635 15.553 1.51709 -1.15418 -0.360771 -0.16994 -10.7194 -12.5334 -18.9563
879 1 Ar 1.27231 15.5645 1.12492 -0.445833 0.530404 0.871236 0.352985 -8.55986 3.75332
874 1 Ar 0.387331 16.5767 0.860813 0.613053 1.88845 -0.230988 -7.6331 -7.49948 -16.4204
412 1 Ar 0.987716 16.1726 0.0589199 -0.352258 1.04186 -1.01494 9.26318 42.5168 14.8693
45 1 Ar 1.56727 16.5538 1.03993 1.28103 -0.676933 0.958964 1.1995 13.8933 -3.92407
401 1 Ar 2.54995 16.7916 1.50844 0.204439 -0.335632 1.76039 6.67701 -4.20721 5.58807
399 1 Ar 2.37855 15.7605 1.18035 0.872659 -0.865826 0.274285 -5.36762 23.4416 -19.7276
3964 1 Ar 2.26157 16.1473 0.16987 -0.272675 -0.606042 0.529097 -0.655067 -19.0411 -6.54069