ITEM: TIMESTEP
1200
ITEM: NUMBER OF ATOMS
4000
ITEM: BOX BOUNDS pp pp pp
0.0000000000000000e+00 1.6795961913825074e+01
0.0000000000000000e+00 1.6795961913825074e+01
0.0000000000000000e+00 1.6795961913825074e+01
ITEM: ATOMS id type element x y z vx vy vz fx fy fz
4 1 Ar 0.461457 1.07974 0.241618 1.54126 -0.68857 0.5175 10.7721 8.14332 -5.21251
8 1 Ar 1.7081 1.08811 0.711749 1.66999 0.654297 -0.330809 10.3382 25.8485 16.1505
368 1 Ar 1.23844 0.313676 0.297111 -0.452835 -0.667748 -0.214581 -23.8823 -26.86 -2.86017
401 1 Ar 0.662604 0.624227 1.49842 -0.477859 -0.187458 0.30265 2.30168 -7.3621 1.90849
6 1 Ar 2.97313 1.66186 0.346994 -1.28844 0.244545 0.817568 13.5892 -35.3007 -7.79249
7 1 Ar 2.16922 0.506702 16.7228 0.191819 -0.658363 2.63932 15.9674 5.74226 -8.88842
412 1 Ar 2.81898 0.749826 0.860824 -0.217683 -0.389683 -0.773252 -7.38708 -10.9293 3.58346
409 1 Ar 3.76346 0.811613 0.288095 0.282567 -2.18481 -1.42532 -5.02924 -9.32123 0.564092
410 1 Ar 3.66574 1.40565 1.14938 0.140371 0.122356 0.0901731 -3.54728 -19.3263 6.75689
14 1 Ar 5.37386 1.02042 0.0734544 0.39318 1.19324 -0.289672 6.20078 6.60861 -5.21388
15 1 Ar 5.74575 0.578661 1.09889 1.70958 -1.22313 0.638359 6.69977 5.85991 -6.61605
16 1 Ar 4.70427 0.627112 0.724049 -0.85078 0.223079 1.05193 -10.9276 -13.9828 10.1261
20 1 Ar 7.4259 0.139553 16.1388 0.200263 0.649473 -0.987052 -14.5224 -18.0637 1.79144
457 1 Ar 7.48827 0.00227584 0.439963 -0.246486 -2.2437 0.232776 0.058833 -0.744816 3.25111
24 1 Ar 8.85674 16.5806 0.712865 -0.75809 -0.892025 -1.25386 21.0489 16.8713 -7.07925
59 1 Ar 7.81157 1.20534 0.335018 0.969716 -0.914368 0.782492 -7.495 11.8263 -12.277
418 1 Ar 8.18584 0.560426 1.01302 0.192777 2.11671 0.550243 -11.4351 -19.8797 10.1548
461 1 Ar 8.97587 1.04002 1.38865 0.802334 1.37156 -1.03484 17.1592 18.0962 -1.76531
25 1 Ar 10.3598 0.238951 0.0194965 -1.18106 0.153433 -0.0590361 2.59622 4.91887 -8.05984
28 1 Ar 10.4695 0.887955 0.891802 -0.00333797 1.3024 -0.72867 1.917 -3.44968 -0.319948
64 1 Ar 9.47261 0.711463 0.373794 1.09033 0.587831 -0.439333 -13.5007 -0.916043 11.8806
63 1 Ar 9.8039 0.198043 1.26844 0.591407 0.31408 -0.924938 -2.65686 -14.7234 -1.41275
27 1 Ar 11.6197 0.574963 1.2433 0.24617 0.541917 -0.443196 -3.95626 -5.7641 0.635452
32 1 Ar 12.2477 1.10329 0.544499 0.447842 1.41077 0.863938 16.9521 -3.66763 19.0612
36 1 Ar 13.3478 1.22299 1.15331 -0.0141376 1.02184 -0.379831 -16.4868 -3.43514 0.967538
433 1 Ar 13.7251 16.629 1.70871 0.0346505 -1.11134 -0.177235 4.11071 2.60881 1.08084
34 1 Ar 14.0579 1.30046 0.423591 -1.36681 0.485993 -0.547491 8.53988 12.5374 -30.861
35 1 Ar 14.7472 16.4554 0.980026 -0.328145 -0.157131 -0.198255 -27.5368 25.0744 29.0096
40 1 Ar 15.2902 0.56395 0.370073 -1.01112 -0.235478 -1.14458 -6.20091 14.3948 35.107
438 1 Ar 16.5643 0.863658 0.930488 0.464009 -0.271217 0.0353753 -22.3456 16.3398 21.0657
43 1 Ar 0.9008 2.30522 0.328979 1.11079 0.285095 -0.494606 -9.8025 -2.74793 -2.60264
445 1 Ar 1.57767 2.33424 1.35447 0.351196 -1.64432 -0.414566 -17.1853 -31.799 9.09222
47 1 Ar 2.12136 2.18286 0.395267 -1.2619 -1.91025 0.181105 -14.8489 7.4902 8.79957
446 1 Ar 2.4526 2.76174 1.43959 1.21656 -1.3743 -0.635201 31.1978 28.0988 3.13246
50 1 Ar 3.88487 2.35766 1.35281 -0.33956 -0.360337 -0.296862 -5.66619 15.9574 -12.6654
51 1 Ar 4.60078 2.72107 1.96792 -0.7857 -1.54071 0.277037 14.6216 3.26464 14.8472
52 1 Ar 3.22123 2.61784 0.39906 1.25121 0.258643 0.760818 6.70424 14.3623 13.2216
449 1 Ar 2.49481 1.72378 1.35889 -1.20836 0.225072 -1.92874 8.67695 -13.6879 -16.8085
12 1 Ar 4.81031 1.64848 0.952267 -1.63452 0.317835 0.0475636 0.346797 9.04947 3.73506
53 1 Ar 5.48542 2.08533 2.2749 0.583294 0.259022 0.352606 0.363172 4.17866 3.98237
56 1 Ar 5.6646 2.04493 0.356033 -0.100022 -0.71989 0.393584 -3.03658 -3.92807 17.8736
55 1 Ar 6.95031 1.05494 1.47644 0.466542 0.254655 -0.567698 6.31854 -28.0792 -7.78971
60 1 Ar 7.64351 2.20485 0.755635 0.623147 -0.568295 -1.00439 -6.69082 2.8875 30.5266
95 1 Ar 6.12284 2.5928 1.31773 2.37997 2.24397 0.0641855 17.2034 1.43915 3.92171
101 1 Ar 8.57301 3.24928 0.417099 -0.679197 1.85054 -0.294352 15.8682 -27.2724 16.1682
462 1 Ar 8.93292 1.85224 0.654419 -0.361944 1.86337 0.957892 -3.94975 2.42193 -2.43154
68 1 Ar 10.043 1.91814 0.668567 -1.11246 -0.201079 0.791784 6.40014 -7.96124 -2.51568
103 1 Ar 9.51527 2.82813 0.648392 0.0721299 -0.479023 -0.141908 0.153339 6.80396 5.31969
107 1 Ar 10.9621 2.54851 0.981852 0.741678 0.525255 0.0483677 -4.75324 22.8346 12.4825
67 1 Ar 11.1459 1.61626 0.657456 -1.04015 0.523843 0.469042 18.0838 -9.53196 -9.47984
72 1 Ar 12.1539 2.24292 0.790744 0.65112 -0.483435 1.14714 -8.92794 2.01943 -0.815788
71 1 Ar 12.5531 1.70206 1.61519 0.222837 -0.453805 0.328911 7.56666 6.26754 -1.25119
70 1 Ar 12.395 2.6223 16.595 -0.23354 0.51286 -0.0394921 -5.82568 17.0866 -10.1173
73 1 Ar 12.9572 1.84983 0.136026 -0.331589 0.24246 -0.192873 9.74152 -10.2591 11.9539
76 1 Ar 13.1126 2.73093 1.14597 -1.74794 0.257739 -0.902459 -11.6804 -1.17404 -13.0047
74 1 Ar 14.9327 2.77186 0.701237 0.850096 -0.677489 -0.859349 -24.2393 5.66668 5.64094
75 1 Ar 14.0155 2.32666 0.838201 -0.0468004 1.54218 0.235314 0.88172 -22.0481 6.52569
44 1 Ar 16.4815 2.64317 0.825925 -1.79009 0.362397 0.0778401 9.95549 20.2194 7.63591
79 1 Ar 15.6784 2.04495 0.706229 0.311638 0.875248 -0.678389 -7.90159 -24.2093 -5.82013
82 1 Ar 0.615882 4.31725 0.0472814 -1.28062 0.0723614 -0.623914 -13.2819 11.6761 -17.0279
83 1 Ar 0.625419 3.72594 0.912987 0.373244 0.818693 -1.18826 -15.5324 -31.1691 0.374509
88 1 Ar 1.50082 4.22759 0.651695 -0.330148 0.153907 -0.809253 15.1658 6.35919 0.0401349
123 1 Ar 0.531521 4.72389 1.01724 -0.141312 0.682928 -0.214892 -2.79081 22.8793 10.4625
48 1 Ar 1.55071 3.04767 0.610213 -0.479585 1.78758 0.10305 8.41472 18.8059 -22.5023
87 1 Ar 2.64856 3.66861 0.580248 -0.65344 0.728454 -1.11537 -0.97973 1.9175 9.61732
91 1 Ar 4.08231 3.20598 0.496281 -0.164346 -0.509256 -0.816696 9.01169 1.41166 -2.35042
92 1 Ar 3.69561 4.19982 0.190584 0.200548 0.0350142 0.259847 -8.46772 -0.708034 -11.4433
490 1 Ar 4.2933 3.62669 1.472 -0.56767 -0.0146419 -0.70443 2.69099 5.15513 -2.03618
96 1 Ar 4.78435 4.08558 0.394053 0.497935 -0.900687 -0.0875399 -4.67768 -2.44522 0.493513
493 1 Ar 5.18939 2.8104 1.0009 -0.584411 -0.184115 0.145143 -21.4326 7.62787 -6.12348
500 1 Ar 5.49694 3.97705 1.5321 0.216784 0.835934 -0.299022 -4.79168 0.797174 -16.826
97 1 Ar 7.58115 3.23616 0.10154 1.24308 0.42547 -0.467217 -0.604957 -30.8557 -16.9805
100 1 Ar 6.97701 4.04931 0.164886 0.207326 0.532101 0.94346 -5.877 13.225 -17.4633
494 1 Ar 6.22456 3.01344 0.196934 0.790092 -0.954982 -1.10414 -23.3746 9.15198 -5.5057
498 1 Ar 6.9133 3.24216 0.896281 -0.675432 -1.30015 0.878812 -0.541432 2.29406 10.8227
98 1 Ar 8.12585 4.0896 0.131788 1.59726 -0.840449 -1.14346 1.77503 42.0567 -28.7308
99 1 Ar 7.86537 3.7706 1.05405 -0.540049 -0.416108 -0.51381 4.39133 -17.0153 -5.80308
108 1 Ar 10.3971 3.69637 0.802399 0.524445 0.243536 0.309645 -16.9746 -7.44866 10.1901
112 1 Ar 11.2375 4.2892 0.801714 -0.385356 0.811723 1.31443 12.5167 -3.27512 -3.30876
506 1 Ar 11.0898 3.61211 1.70145 0.754076 -0.121428 -0.576465 -2.98062 -5.67404 -2.42865
110 1 Ar 12.0248 3.67002 16.5966 1.03513 -1.54888 2.43195 1.90933 1.63299 -0.663954
111 1 Ar 12.2309 3.5067 1.09077 0.387814 0.401131 -0.920342 -2.9835 8.99052 -7.91633
113 1 Ar 12.996 3.76702 0.435385 -0.430488 0.261256 -1.33796 16.1649 -7.76767 -5.88828
116 1 Ar 12.6857 4.15389 1.90378 0.645478 0.184753 0.0724608 10.7878 5.96008 -21.4819
115 1 Ar 14.0761 3.40548 0.998035 0.564787 1.4407 0.629553 -22.1437 -7.95533 -30.8751
120 1 Ar 14.6733 4.45907 0.510258 0.314968 0.845411 0.557719 -10.9128 -25.6129 2.58554
514 1 Ar 13.9437 4.3883 1.8187 -1.30006 0.328623 -0.906057 5.83813 -11.0697 27.3213
517 1 Ar 14.7559 3.76352 1.60299 -1.67897 -0.097266 0.669301 30.9665 2.33108 16.1139
84 1 Ar 16.453 4.93468 0.344936 1.29695 -0.0527733 -0.0485073 -3.56757 -19.2239 -6.49081
117 1 Ar 15.5005 3.67036 0.770766 1.44347 -0.41167 -0.571254 -7.17225 -4.13259 2.75031
163 1 Ar 0.493983 5.4851 0.124601 -1.44838 -1.99744 -0.636385 -18.5454 -3.29262 -1.88449
522 1 Ar 0.962808 5.72416 1.04249 0.348856 -0.511952 0.369321 40.721 -40.2432 -3.35053
127 1 Ar 2.48719 4.81517 0.418355 -0.647508 -0.913947 0.950133 -0.954393 3.81719 3.11031
128 1 Ar 1.89678 5.2413 1.31545 0.0380893 -0.258994 -1.035 -20.4065 -9.57461 1.61179
132 1 Ar 3.4847 5.38988 0.411413 0.940653 -0.459113 0.324719 -3.66333 1.15372 6.56018
133 1 Ar 4.47648 5.16898 0.0122584 -0.423755 0.631815 1.29322 -7.57537 -14.3077 0.58907
526 1 Ar 2.91628 5.09843 1.47248 -0.135226 -0.937631 -0.48178 3.77479 -1.03815 -3.22174
529 1 Ar 3.96953 4.69119 1.07879 -0.633858 0.557108 0.349358 11.6413 6.63684 6.18608
569 1 Ar 3.50895 5.96993 1.6798 -1.56026 0.505507 0.233348 -0.780546 6.76575 -5.05108
134 1 Ar 6.10785 5.91029 16.7866 0.934505 -0.5153 0.74469 -10.8703 10.7863 -2.93942
136 1 Ar 5.33792 4.96208 0.736919 1.52538 -0.894259 -0.222806 -15.888 2.58008 7.47633
534 1 Ar 6.20247 5.9572 1.08814 0.572526 -1.3141 -1.98201 -5.52495 25.3105 -19.3766
135 1 Ar 6.31611 5.00485 0.471073 0.215376 0.814754 -0.170384 21.4678 10.2331 -9.56985
140 1 Ar 7.1684 6.00707 16.7803 0.479813 -0.537883 -0.419744 8.34334 3.55849 0.263676
537 1 Ar 6.59677 4.26257 1.08805 0.174721 -0.92842 -1.66883 -0.926392 -9.29146 31.0731
540 1 Ar 7.10725 5.28141 1.18511 0.761569 -0.681674 -0.273795 4.00451 -6.83978 -2.79771
104 1 Ar 9.55737 4.55994 1.24741 -0.163415 -0.4728 0.281197 -8.89637 -23.3824 -5.80659
139 1 Ar 8.1111 5.66164 0.740358 0.766369 -0.880423 1.02366 -8.50271 -21.9127 -35.8921
144 1 Ar 9.21646 5.33396 0.706196 -0.370658 0.564383 0.328605 8.34291 31.4736 -29.8027
145 1 Ar 9.80401 4.8776 16.624 0.144481 0.729808 -0.243879 -2.76939 0.296498 10.8978
148 1 Ar 10.1198 5.97607 0.515143 -0.368777 -0.161578 0.377458 5.44585 -8.26261 0.483793
147 1 Ar 10.4333 5.02549 0.95028 -1.58663 -1.2588 0.563464 9.43703 -12.5845 -11.8347
151 1 Ar 11.4882 5.28935 0.930944 0.662944 -0.30246 0.0193107 3.11008 4.60645 4.41777
510 1 Ar 11.7208 4.4758 1.75641 -0.545127 0.0156002 -0.698377 -14.1429 -1.23786 3.73462
546 1 Ar 11.0174 6.25173 1.48853 -1.12715 1.34991 0.380157 2.23277 10.2809 -11.9
150 1 Ar 12.9413 5.60182 0.597103 -0.0771106 0.276202 -0.421606 -3.32795 0.149173 -5.06238
153 1 Ar 12.3575 4.58453 0.423076 -0.306053 0.682949 0.967815 -4.83197 3.69349 3.58375
155 1 Ar 13.4536 4.6469 1.0093 0.176939 -0.106707 0.340277 -15.7716 9.38097 -30.0763
157 1 Ar 15.4651 5.08575 0.773351 0.060142 -0.62145 0.350696 11.3885 9.81124 -9.91827
159 1 Ar 14.5368 5.19364 1.21357 -0.014058 -0.0165786 -0.450534 -35.4171 0.933293 -5.78115
124 1 Ar 16.364 5.18956 1.34425 0.577406 1.16602 -0.404682 10.5739 4.1685 9.26561
158 1 Ar 16.2216 6.04973 0.677025 -0.479996 0.12711 -0.191658 -12.8807 0.697969 -8.05171
162 1 Ar 0.983925 6.42416 0.108415 1.11376 0.0137912 0.10219 14.5409 4.49859 -12.6789
164 1 Ar 0.28395 7.03135 0.559511 0.450237 -0.535288 0.970659 -0.930415 6.87532 5.72564
168 1 Ar 1.14849 6.71534 1.13163 0.412193 0.997204 -0.00770428 -1.79825 27.7086 -0.354021
165 1 Ar 1.5082 5.50812 0.183394 -0.0178143 1.06304 -0.567932 29.8336 8.49043 12.2885
166 1 Ar 2.03855 6.91749 0.558868 0.499717 -1.30498 -1.69345 -1.42648 14.1182 -8.92942
167 1 Ar 2.37491 6.06912 1.01393 -0.505949 0.931728 -0.28079 15.646 2.22306 2.41478
566 1 Ar 2.56001 6.90986 1.69196 -1.00561 -1.06729 0.109386 1.20481 4.71539 1.61445
170 1 Ar 4.69207 7.33789 0.820243 -0.416284 -0.981065 -0.0181056 -9.44464 -1.07577 7.2381
171 1 Ar 3.97749 6.40714 0.599011 -0.138024 -0.425528 -1.54388 -9.60414 -5.45838 -17.1384
172 1 Ar 3.19605 7.03522 0.805309 -0.680279 0.159886 -0.864418 -14.2786 9.44656 1.68092
173 1 Ar 4.73066 6.32467 1.25826 -1.52515 1.22457 -0.31467 15.9541 -1.51218 21.821
175 1 Ar 5.79168 6.97094 1.0414 1.09129 -0.70006 0.298413 -7.32715 0.697672 -4.46074
3736 1 Ar 4.924 6.0508 0.222143 0.831299 -0.0495322 -0.192679 15.4916 15.8759 -2.48812
177 1 Ar 6.74534 7.01971 0.195814 0.924734 -0.119226 -0.351799 -3.97777 1.30939 14.987
179 1 Ar 7.86868 6.92275 0.258832 1.02014 0.962784 0.254584 -4.51135 -14.0049 10.0821
180 1 Ar 7.46186 7.67239 1.12572 0.75983 0.915375 -0.107096 1.2298 7.44586 -9.58372
538 1 Ar 7.15397 6.36122 1.05747 1.91688 -0.555725 0.418866 13.4196 17.7799 -17.2932
574 1 Ar 6.43976 7.72827 1.4429 1.48571 1.65685 0.327106 -0.152099 -13.7857 -7.24269
184 1 Ar 8.39661 7.18438 1.29227 0.11713 0.0963471 0.861828 3.12001 10.5099 -5.38222
183 1 Ar 8.83838 6.48245 0.594815 1.42821 0.0366641 -0.147751 -5.38857 -6.61293 6.01367
185 1 Ar 9.69068 6.83882 0.119378 1.31121 0.281093 -0.34619 -6.78694 -10.0411 1.37115
542 1 Ar 9.38299 6.74529 1.69352 0.22427 0.445027 -0.291646 -2.41495 1.46598 1.50483
582 1 Ar 9.12383 7.56639 0.56067 -0.506779 0.112771 0.0386279 4.5628 -3.44317 16.3578
585 1 Ar 10.218 6.96837 1.02549 -0.45998 0.345924 0.504289 3.74126 -4.44878 15.629
152 1 Ar 11.9177 7.15205 1.26419 0.721398 -0.0668519 0.0391508 3.55577 18.695 3.64279
187 1 Ar 11.5062 7.17703 0.320157 0.505458 -0.78163 1.22992 -13.8787 2.52397 -11.3918
189 1 Ar 11.278 6.14047 0.285332 0.18027 0.409329 -0.125611 -16.6626 -3.29317 0.563147
550 1 Ar 12.0779 6.21645 0.915161 1.09125 -1.1635 -1.83099 13.6579 -15.4331 4.55154
589 1 Ar 11.2695 7.28195 2.53555 0.85149 0.543844 2.36119 8.76088 1.32418 -4.04153
191 1 Ar 12.9326 6.94055 0.819957 0.424475 1.18629 -0.0418619 -30.6377 31.4959 -9.1453
160 1 Ar 14.9714 6.35407 0.962563 1.51897 1.18409 0.285852 -6.81273 -7.43955 28.6452
195 1 Ar 14.6888 7.23449 0.58958 -0.21698 0.668158 -1.36418 -13.4731 24.5067 -30.0575
199 1 Ar 16.1285 7.17122 0.938193 -0.541003 -1.00722 0.317139 -6.63573 -1.73849 7.90269
561 1 Ar 0.1974 6.20163 1.33733 0.806524 -1.13405 0.723234 -39.8688 34.0281 10.6383
201 1 Ar 0.238342 8.08441 0.243939 0.131438 0.00473068 0.10788 -15.6469 5.70735 -20.6831
203 1 Ar 0.642165 7.9765 1.14425 -1.10633 -2.15529 -0.592113 9.65013 -8.23232 29.1125
202 1 Ar 0.905288 8.88872 0.244408 -0.504907 0.98123 0.658354 -8.88483 -8.7751 -2.72787
208 1 Ar 1.29379 8.81743 1.21178 -0.891583 0.428257 -0.223662 -4.8491 -37.5638 -21.5649
207 1 Ar 2.52955 7.9162 0.521701 0.112873 -0.359872 -0.695059 3.75537 3.8857 -9.83557
206 1 Ar 2.01382 8.90444 0.425899 0.0434508 -0.280472 -0.719618 -9.89822 1.36877 -4.29977
212 1 Ar 2.93996 9.00567 0.829271 -0.517874 0.420919 0.69502 5.62538 -13.2618 -3.11934
605 1 Ar 1.90197 7.78628 1.35634 -0.212319 0.941672 -0.144126 -19.4581 -5.55502 6.28703
211 1 Ar 4.4012 8.22337 1.45277 -0.244714 -0.121982 -0.802455 45.032 -23.4845 -23.0412
210 1 Ar 3.72004 8.10492 0.587521 -1.80527 0.505655 -0.523104 -16.933 -5.48114 1.7179
176 1 Ar 5.41274 7.68048 0.155336 -0.0978462 0.219057 -0.827204 7.61178 -1.0118 4.54827
214 1 Ar 5.55568 9.0138 0.11725 0.160571 -0.180556 -1.2935 1.74216 22.0105 36.3654
216 1 Ar 4.66333 8.46002 0.367132 -0.892133 0.853281 -0.0528044 10.6535 -3.68145 0.697305
613 1 Ar 5.54175 8.21291 1.38075 0.00979288 -0.114248 1.48295 -21.0281 -7.32008 1.81555
174 1 Ar 6.25898 8.23264 0.423041 0.649163 -1.17495 1.13254 6.92517 1.61549 1.61565
178 1 Ar 7.07003 7.91357 16.5053 -0.18356 0.457024 -0.282423 7.21067 15.3143 4.09256
219 1 Ar 7.7374 8.7702 0.586204 0.070548 0.719949 0.343747 -4.95957 -5.70935 36.9437
614 1 Ar 6.86223 8.67551 1.2295 -1.1506 0.150399 1.72097 19.9764 -0.153354 -15.4946
182 1 Ar 8.19594 7.90657 0.200579 -0.81387 0.770721 -1.85787 -5.05953 6.13984 -10.7418
221 1 Ar 7.95619 8.90188 16.4316 -0.24238 1.39813 1.00404 9.19747 3.87061 -32.0025
223 1 Ar 8.6622 8.36964 1.05161 -0.779369 2.17191 -1.22411 -5.99522 7.60627 5.00716
188 1 Ar 10.4803 7.66952 0.31538 -0.381324 -0.954241 0.178457 5.36082 9.54519 -7.27715
225 1 Ar 9.68121 8.41552 0.367474 0.397069 -0.822631 0.0689774 -17.2243 2.24268 -56.7927
227 1 Ar 10.8793 8.72843 0.491871 -0.236123 -0.496935 -0.372848 -31.7171 -30.6533 13.1153
586 1 Ar 11.146 7.86372 1.28283 -1.31727 1.01462 -1.94793 -35.3596 -27.8794 -3.25228
625 1 Ar 9.89554 8.14341 1.26305 0.343477 -1.34633 -0.99551 21.0429 -60.5008 42.8658
192 1 Ar 11.9457 8.05337 0.697229 0.89736 -0.409448 0.928753 3.14176 13.9069 -15.4739
229 1 Ar 11.6241 8.65 16.5863 -0.731664 1.50883 0.268343 9.15898 -5.4324 -11.5957
190 1 Ar 12.7444 7.82238 0.104612 -0.221647 0.276881 -0.0971832 11.919 -5.41217 -7.17199
196 1 Ar 12.8595 8.0892 1.21267 -0.197097 -0.846705 -1.61299 11.6501 -0.0276777 1.54299
194 1 Ar 13.9673 8.92759 0.145123 0.559397 0.085203 0.583082 -32.3006 11.4402 2.57489
197 1 Ar 15.5225 7.99774 0.649763 0.156749 1.05577 -1.08494 -13.1028 13.6296 10.524
235 1 Ar 13.9846 8.11695 0.698685 0.150721 0.175166 -1.1757 -3.09705 -29.2613 15.8218
236 1 Ar 14.6668 8.79343 1.19829 0.378602 0.94182 -0.0979795 2.68066 -10.2038 -14.5811
637 1 Ar 15.336 8.40332 2.05794 -0.767663 -1.2432 0.275229 -6.03552 0.213989 6.90397
239 1 Ar 16.3959 8.17855 1.38908 0.5441 0.418807 1.36321 -10.0552 -6.87191 -0.561528
240 1 Ar 15.7641 9.16491 0.767438 -1.18689 -0.462847 1.7591 13.4597 -14.8699 -18.9334
204 1 Ar 0.125573 9.03093 1.06331 0.40664 -0.91092 -0.844907 -2.41056 -9.3679 -2.30778
243 1 Ar 0.829971 9.73564 0.800368 0.702325 -0.745509 -0.859219 11.5102 22.9244 5.26107
242 1 Ar 1.20373 11.0136 16.4816 -1.30058 -1.53813 -0.207294 -1.10965 -8.14486 -1.314
245 1 Ar 1.63902 10.1295 0.0474133 -0.0848387 0.983647 -0.0625339 6.10655 -6.39969 11.799
247 1 Ar 2.0094 9.94257 1.06476 1.06001 1.17223 0.148395 0.359324 -9.89082 2.45244
249 1 Ar 2.87703 10.0745 0.375183 -0.471594 1.70694 -1.04911 -0.178894 1.15939 3.57427
248 1 Ar 2.29896 10.9248 0.795856 0.634308 -1.02688 0.00950684 -4.35592 8.1246 -2.33226
251 1 Ar 3.98109 9.22015 0.635849 0.0214849 -0.627139 0.670773 -40.0332 -2.80693 -8.6952
612 1 Ar 3.37463 9.70456 1.43185 0.848795 -0.541072 -0.348115 -5.24797 10.9777 8.83428
653 1 Ar 4.22998 10.2334 1.17526 -0.21438 -1.37625 -1.82551 16.3733 -6.08923 10.3863
253 1 Ar 4.79182 9.19507 1.19255 -0.501629 0.901614 -0.348897 11.9388 -3.10782 -2.43029
255 1 Ar 5.90896 9.12495 1.1094 -1.68737 -0.350898 0.922833 4.28344 20.4 -2.14081
256 1 Ar 5.5116 10.4554 0.788147 0.842228 0.318227 1.22897 -5.93994 2.23361 -2.39616
215 1 Ar 7.0593 9.53696 0.390248 -0.54817 1.62598 0.398089 -8.66419 6.72253 -2.24532
220 1 Ar 6.7363 9.8606 1.46605 0.741993 -0.654328 0.67942 18.2024 -14.0865 -7.41528
297 1 Ar 6.6493 10.6072 0.404877 -0.4774 -0.697765 -0.29652 9.42626 -6.84499 5.82982
218 1 Ar 8.0385 10.0926 0.287544 0.183197 0.912105 -1.61296 -9.65607 -13.4519 1.38006
259 1 Ar 8.42628 10.7985 0.932041 -1.06224 -0.77454 0.898382 7.83367 4.43628 11.0633
224 1 Ar 8.28587 9.53022 1.3668 0.745966 0.444149 0.124743 -12.4237 8.65614 -6.72149
222 1 Ar 8.7231 9.22969 0.440565 -0.103766 0.965826 0.0838532 6.0043 1.08469 -10.5833
228 1 Ar 10.0182 9.07011 1.06011 1.71677 -0.28382 -0.830261 11.8854 67.7884 2.65158
265 1 Ar 10.1993 10.392 0.162108 -0.377155 -0.295553 -0.519963 -3.24692 7.18822 8.42504
226 1 Ar 10.6971 9.51558 16.6245 0.847051 -0.11647 -0.984452 24.8001 12.1836 -7.39563
232 1 Ar 11.576 9.4319 0.473958 1.81416 0.153574 -0.755323 63.3565 14.8645 -32.5643
267 1 Ar 10.9397 9.74777 1.11145 1.50049 -0.838551 1.01244 -39.5949 14.6607 25.8233
269 1 Ar 11.2731 10.5085 0.181529 0.247266 -1.35606 -1.13045 7.6122 -12.252 -18.3637
272 1 Ar 11.928 10.3877 1.10179 0.689877 -0.846595 -1.08037 2.10131 -4.26918 -0.158628
231 1 Ar 13.3104 9.40078 1.0091 0.696156 -0.0921081 -0.901244 2.0699 -16.8001 -46.0655
271 1 Ar 12.9229 10.1178 1.61678 -0.0872691 0.0189953 -1.35844 -10.665 10.5358 1.93415
273 1 Ar 13.6161 10.3778 0.395729 0.784115 0.288703 -1.33635 5.60487 5.12777 -12.0912
234 1 Ar 14.6409 9.80654 0.616086 -0.46878 -0.518155 -0.357403 -1.16284 -20.8214 -11.2417
275 1 Ar 15.4901 10.4233 0.619742 -0.506875 0.518055 0.586926 10.1175 -12.767 4.27088
241 1 Ar 0.288952 9.87065 16.6606 -1.39151 -0.0740842 0.127942 2.20774 0.193484 -3.57915
279 1 Ar 16.5131 9.97998 0.805979 -0.571219 0.970407 -0.11464 -2.72422 7.05935 0.264894
244 1 Ar 0.466089 10.8291 0.482966 0.29803 -0.398009 0.316935 -3.95833 -5.34714 1.94653
283 1 Ar 1.38446 11.5881 0.518922 0.391681 -0.34838 -0.047088 -0.0769888 2.43624 -3.04788
285 1 Ar 2.33526 11.7027 16.6329 1.00728 -1.03143 1.65534 -1.69375 4.83494 5.42698
287 1 Ar 3.29323 11.1627 0.451833 -0.745732 0.907935 1.35879 -2.83212 8.41514 -1.72597
252 1 Ar 3.11804 10.6879 1.91011 -1.19863 -0.290977 0.246554 -10.9677 0.777262 -0.733036
250 1 Ar 4.83495 11.1007 0.0352092 -0.706592 -1.23119 -1.52027 8.65845 -14.9208 -12.137
291 1 Ar 4.30445 11.7123 0.709192 1.17321 -0.154551 1.36673 -48.1103 4.83531 -0.456099
649 1 Ar 4.03546 10.4584 0.223616 0.426428 -0.678904 1.55986 -11.9044 2.58624 -23.3547
650 1 Ar 4.85805 11.1407 1.38291 1.18876 0.137379 -0.0251666 8.87934 0.639036 -3.91557
689 1 Ar 3.72836 11.7511 1.68081 -0.143504 0.755596 -0.251433 -0.636595 -9.22014 -2.83708
654 1 Ar 6.03121 11.338 1.18027 1.43898 -0.00515721 -2.47995 -25.5188 -15.0793 -5.75215
693 1 Ar 5.27019 11.8318 0.61381 0.318541 -0.24507 0.823331 28.1387 1.19547 2.97941
295 1 Ar 6.81766 11.9392 1.3156 1.13466 1.65951 -0.729119 13.5666 32.2704 24.7309
258 1 Ar 6.76435 11.8794 0.322959 -0.239484 1.30676 0.547121 -12.6891 -4.28199 -8.26141
264 1 Ar 6.93791 10.9282 1.42711 -0.667571 -0.619909 0.655081 7.57949 -21.3019 11.0351
301 1 Ar 7.53798 11.257 0.672106 -0.0993805 0.953576 0.326387 6.2449 6.33168 -14.1132
662 1 Ar 9.43842 11.0432 1.21726 0.392834 0.153495 -1.10875 -9.36137 1.56329 -4.66823
263 1 Ar 9.23683 10.2099 0.566671 -1.07247 -0.330605 -1.12869 -4.66574 -7.34372 0.320843
268 1 Ar 10.2973 11.5444 1.46901 -1.47781 0.262647 -0.00232885 -4.23713 20.0986 5.92239
266 1 Ar 10.3001 11.5534 0.452661 -0.698749 -0.163487 0.443888 -5.17976 1.42447 -20.3138
309 1 Ar 11.99 11.4429 0.749359 0.571087 0.321651 0.270299 -0.195464 9.91166 -10.4917
666 1 Ar 11.0626 11.0172 1.02261 -0.0165747 1.42491 -0.156783 -3.61513 1.87726 19.1221
270 1 Ar 12.6783 11.0906 16.7695 -1.62148 -0.156219 -1.59645 -4.62603 1.92904 2.58573
311 1 Ar 13.0211 11.1263 0.943348 -1.12305 -1.0083 0.6888 7.04485 0.49635 16.8357
310 1 Ar 12.7401 12.162 0.222646 0.36247 -0.327918 -1.12106 -2.50749 -9.1154 2.77402
276 1 Ar 14.5585 10.891 0.719986 0.94609 -0.349306 1.31456 -4.93507 14.1965 8.24389
313 1 Ar 13.8384 11.552 0.105306 -1.59765 -1.16351 -0.773871 -8.55412 -1.64287 21.3531
315 1 Ar 14.9923 11.8438 1.15677 0.907565 -0.534705 0.834421 12.1495 -5.31875 6.43681
319 1 Ar 16.0039 11.4821 0.654664 0.0207579 -1.13617 -0.447186 9.74722 -0.968898 5.87208
284 1 Ar 0.202632 11.9927 0.754526 -0.0371477 -0.569352 -1.46359 -13.0599 1.10586 -26.9427
282 1 Ar 0.899668 12.3319 16.6813 0.388054 -0.804841 -0.371407 -1.62364 11.6551 0.312728
323 1 Ar 16.7316 13.1107 1.76131 0.572612 -0.4639 1.6908 -1.64172 -7.16632 -0.655938
286 1 Ar 3.00237 12.8368 16.2643 1.15661 0.253674 -1.11181 -21.6135 0.934076 -0.777502
288 1 Ar 1.7902 12.9904 0.192354 2.33226 0.997733 -0.0583061 -44.0937 -6.44595 -4.60884
327 1 Ar 2.55473 13.5819 0.203334 -0.53721 0.289681 -1.41522 35.4947 3.19618 3.53639
686 1 Ar 2.25275 12.3154 0.744037 1.08695 0.869288 0.0120284 -1.42253 -24.1272 10.9924
292 1 Ar 3.32342 12.2951 0.355365 0.392845 -0.299802 -0.42083 6.38175 -2.41721 -7.72505
729 1 Ar 3.41922 13.4643 0.75884 0.368595 -1.81065 -0.572956 17.4134 -13.1173 -2.63671
331 1 Ar 4.60644 12.704 0.270484 0.711515 0.196153 1.32651 -0.693198 -1.6698 4.86719
296 1 Ar 6.40632 13.1541 16.708 0.0137713 -0.0157313 -0.56837 -4.5543 -6.74868 9.98618
335 1 Ar 5.38088 13.7493 0.179457 -0.800788 0.804802 -0.1666 12.2017 31.7781 15.358
694 1 Ar 5.67908 12.7611 0.761021 0.174371 1.0632 0.756362 19.786 16.6292 -16.2679
733 1 Ar 4.983 13.4522 1.0633 0.0252543 -0.0703421 -0.223739 -17.496 9.08927 19.3626
300 1 Ar 6.92147 12.9697 0.949852 0.180521 -1.26764 0.969607 -4.77481 3.03684 2.65942
737 1 Ar 7.01904 13.8627 1.7482 -0.0956955 1.21916 -0.229721 4.18049 -3.02439 2.34652
262 1 Ar 7.99984 12.3004 0.783197 -1.29153 -0.980023 -0.19264 -1.26013 1.24796 -2.12812
339 1 Ar 7.93678 13.317 1.37018 0.373868 0.579088 1.19333 -8.16866 -5.8662 -2.14429
341 1 Ar 7.48812 13.1452 0.0499196 0.0960897 -0.227939 0.501685 3.30076 -3.57201 1.42639
302 1 Ar 8.67571 13.0328 0.0580245 -0.485242 0.0276759 -0.602849 10.713 -16.9244 14.0375
702 1 Ar 9.36241 12.2786 1.1121 1.20867 0.404552 0.388316 -36.4526 -15.2454 6.43436
305 1 Ar 9.83584 12.5199 16.7998 1.24226 1.84884 1.87331 -16.6516 -7.03109 11.1661
308 1 Ar 10.2525 12.6516 1.05244 -0.267601 0.542673 -0.861614 40.7181 16.5248 -5.45671
345 1 Ar 10.2783 13.543 0.165808 0.467541 2.06996 0.527323 -10.1464 -38.1724 56.5426
745 1 Ar 10.1388 13.4481 1.81991 0.753307 -1.33341 0.887335 -0.486004 21.3869 -40.8633
306 1 Ar 11.0592 12.3546 0.30991 0.862822 0.217812 0.92999 -14.9167 3.04094 4.43711
312 1 Ar 11.9198 12.5726 0.844662 -0.768185 -0.307039 -2.10151 14.9295 24.9447 -29.3386
347 1 Ar 11.0387 13.4825 1.19416 0.463985 -0.260752 0.55253 6.49941 -9.73415 -3.96989
352 1 Ar 12.1339 13.9451 0.961003 0.594124 1.38464 -0.0515698 0.555183 -10.4943 -1.07532
351 1 Ar 12.9017 13.0716 0.820178 -1.00687 -0.0293573 1.93167 -22.6627 -13.8612 5.69313
317 1 Ar 14.6829 12.2264 0.247436 -0.630971 0.43216 -0.312615 7.8579 2.61043 -5.92182
316 1 Ar 13.9664 11.9751 1.04174 -1.42867 -0.43765 0.115982 -12.8812 22.3681 3.49606
320 1 Ar 14.6771 12.8979 1.69575 0.133993 -0.818925 -0.48734 1.40472 1.51057 -24.6732
355 1 Ar 13.8512 13.3243 1.04095 0.199047 0.457288 0.19627 25.5282 2.40665 32.8237
356 1 Ar 13.799 13.5854 0.0763931 -0.73163 0.491379 0.571099 28.7221 24.888 -33.0488
321 1 Ar 0.323124 13.1718 0.632697 0.699176 -1.53482 0.367972 -9.3834 4.32625 -3.94399
357 1 Ar 14.8309 13.2484 0.465654 0.152296 0.22936 2.35927 -5.61664 1.10675 -3.33853
318 1 Ar 15.8047 12.5777 0.456227 -0.622396 1.51191 -0.836209 -13.6424 -5.61998 6.11359
359 1 Ar 15.5303 13.2475 1.24721 1.91603 -0.601202 0.80511 21.4248 3.94999 2.2348
322 1 Ar 0.518857 14.2659 0.398948 0.875736 0.395331 -0.571503 -7.06686 -16.8486 -15.8282
328 1 Ar 1.76558 14.1632 0.700602 -0.710016 0.0400265 -0.452293 -4.38355 -23.7097 5.62219
722 1 Ar 0.700524 15.0153 1.06716 1.03045 -0.628712 -0.653713 4.34964 2.54248 29.5254
326 1 Ar 2.25369 14.4226 16.5741 -0.31496 -1.39644 0.0767715 1.3751 -1.84198 14.7283
365 1 Ar 1.30994 14.9344 0.228946 -0.362075 -0.911507 -0.30193 12.5785 13.4705 -14.1476
726 1 Ar 2.44986 14.8488 1.05754 1.65637 0.178976 0.364017 -2.49051 11.2134 -5.88749
332 1 Ar 3.2903 14.597 0.514518 -0.244953 -0.439934 -0.271705 10.4202 -8.11705 -21.8326
336 1 Ar 4.59371 15.0632 0.321099 -0.827583 1.90316 0.945069 3.01123 -4.85389 -4.40801
730 1 Ar 4.17474 14.3078 1.24403 1.27845 -0.942132 -1.07964 -0.850846 7.48547 -26.6642
334 1 Ar 6.39043 15.1923 0.41164 -0.670464 0.404499 -0.644593 26.4911 -5.58955 -5.67662
736 1 Ar 5.3624 14.5936 0.881669 -1.07112 -1.1679 -0.12618 5.24969 1.75617 6.62215
740 1 Ar 6.03562 13.8572 1.34111 -1.28553 0.906003 0.108007 -6.33922 -4.00026 -4.29139
338 1 Ar 7.28174 14.1447 0.589127 0.505479 1.96984 0.234228 21.7951 -8.28465 18.5946
340 1 Ar 6.54912 14.8875 1.40351 -0.561824 -1.17241 0.933451 23.5703 -12.4324 -6.37575
379 1 Ar 7.28787 14.8661 16.6339 0.136272 0.460445 -0.464955 9.47149 10.4209 9.11486
343 1 Ar 9.42142 13.4189 0.786266 -0.0444266 0.531824 0.647269 -2.41351 -5.93149 7.71872
344 1 Ar 8.07866 15.0987 0.54758 -0.988512 0.209877 -0.927237 -4.70467 12.2108 6.82078
3944 1 Ar 8.2312 13.9525 16.639 -0.00802598 0.0957465 -0.028712 -6.09063 44.254 38.0948
342 1 Ar 9.2859 14.4449 0.510121 0.335827 -0.0477345 -0.651571 -18.4113 7.54136 -2.51241
348 1 Ar 10.4266 14.3779 1.22235 -1.51318 -0.0461181 0.379351 -1.74486 4.06463 -3.06078
385 1 Ar 10.0974 15.0364 0.41066 -1.15875 0.005512 0.174607 2.2947 -0.48886 -4.75074
346 1 Ar 11.247 14.2961 0.475446 -0.0784681 0.114608 0.84514 -12.8225 -1.88291 -8.77307
387 1 Ar 11.6258 14.7665 1.37397 -0.994374 1.43033 1.12753 -13.4932 2.12937 1.68987
389 1 Ar 12.1435 14.8582 0.290309 -0.212173 -1.38697 -0.0537367 5.38358 1.84729 1.27475
391 1 Ar 13.1426 14.0649 0.643442 1.18524 -0.266037 0.717785 -6.10482 35.4113 -5.18172
789 1 Ar 12.6192 14.9685 1.58446 -0.611916 -0.167968 0.105391 -24.2588 -23.9487 -6.52234
793 1 Ar 14.0437 14.5433 1.58933 0.15182 1.11141 0.551519 -15.1229 -12.3255 7.38846
393 1 Ar 13.793 15.2448 0.407089 0.793378 -0.125718 -0.217227 -12.941 -11.0952 -0.193119
360 1 Ar 14.5215 14.2961 0.703698 -0.841292 -0.797854 0.593915 -18.5292 -44.0646 22.1349
395 1 Ar 14.5607 15.3202 1.12226 -1.43215 -1.35556 0.697322 14.6434 -7.75278 -30.0667
324 1 Ar 0.278714 14.0401 1.39666 0.038521 -0.80572 -0.0800558 6.52299 1.12244 3.04522
358 1 Ar 15.8372 13.5132 16.6393 -1.43214 -0.486423 0.403992 -2.36392 4.55596 0.884357
758 1 Ar 16.113 14.5247 1.40986 -1.15861 -0.112118 -0.699347 -7.73944 0.0918412 -17.1092
3 1 Ar 0.24354 0.00766879 0.644839 1.47401 -0.0268241 0.448719 4.27421 -14.8313 -10.3469
363 1 Ar 1.04399 15.959 0.290595 1.90396 -0.241026 -0.998631 -5.68888 2.86558 22.0019
761 1 Ar 0.853374 16.2128 1.31583 -0.632765 1.00507 -0.731952 -9.07635 -2.95982 4.22959
367 1 Ar 2.4568 15.444 0.0433084 -0.532672 0.976471 0.4346 2.87734 4.66568 9.13634
372 1 Ar 3.04903 16.5448 0.0282214 -0.910681 0.412072 0.779907 0.420395 1.04584 -0.966883
765 1 Ar 1.63312 15.4652 1.18367 1.05993 1.19993 -0.05668 9.5687 8.86555 -11.2734
762 1 Ar 2.10358 16.4893 0.592821 0.792925 -1.0061 -1.73114 21.7177 -21.2097 -29.3044
766 1 Ar 2.73699 15.8661 1.1051 -0.879289 -0.511398 0.692978 -1.77962 -9.19623 0.131987
371 1 Ar 3.55605 15.5712 0.201366 -0.862583 1.07126 0.058869 -1.29742 14.6354 16.7456
370 1 Ar 4.30025 16.4726 0.338505 -0.537438 -0.021407 -0.0525712 4.50316 -6.32229 -3.86881
773 1 Ar 4.40682 15.4758 1.23439 -0.0443809 0.333445 1.00401 5.63107 0.854828 7.96679
770 1 Ar 3.71054 16.2568 1.15179 -0.0942686 -0.878442 -1.56127 -5.6819 10.7198 -15.8749
373 1 Ar 5.51895 15.6029 0.296291 2.14674 0.034203 -0.914491 -40.6179 11.1899 29.0296
375 1 Ar 6.12624 16.4663 0.805534 0.315354 -0.308858 1.20108 28.1865 -40.1841 34.2062
374 1 Ar 5.344 16.6758 0.257826 -1.08795 -0.255583 -0.123615 -18.5306 7.42069 -15.0055
376 1 Ar 4.79405 16.5441 1.41095 0.594091 -0.604453 -0.210372 1.9227 -0.783456 -1.09979