ITEM: TIMESTEP
1300
ITEM: NUMBER OF ATOMS
4000
ITEM: BOX BOUNDS pp pp pp
0.0000000000000000e+00 1.6795961913825074e+01
0.0000000000000000e+00 1.6795961913825074e+01
0.0000000000000000e+00 1.6795961913825074e+01
ITEM: ATOMS id type element x y z vx vy vz fx fy fz
4 1 Ar 0.40403 1.1094 0.321511 -0.00831795 -0.081509 0.477889 13.578 -5.90345 1.28274
8 1 Ar 1.43538 1.47091 0.919916 0.195912 1.01911 -0.108474 -3.44916 -33.7611 -18.9985
368 1 Ar 1.18134 0.381517 0.443879 -1.63478 0.313947 1.00016 -12.1331 -6.27832 -9.25778
401 1 Ar 0.707942 0.512079 1.376 1.05718 0.549506 0.0177335 9.58145 12.1414 6.16947
6 1 Ar 3.00762 1.23259 0.268035 1.01215 -0.563977 -0.470056 0.205561 28.9391 15.5127
7 1 Ar 2.13757 0.607005 0.193791 0.608757 -2.24115 1.02673 12.3476 14.5382 -9.32529
412 1 Ar 2.8295 0.645171 1.09006 -0.947245 0.516239 2.02213 -8.88793 -9.15503 13.3141
409 1 Ar 3.71369 0.525338 0.452987 0.384564 -0.347994 1.0681 15.7822 -11.0294 1.01347
410 1 Ar 3.79252 1.02096 1.41303 1.07773 0.998767 -1.38667 9.68267 0.954947 -0.372176
14 1 Ar 5.10133 1.05455 16.7614 -0.0164746 0.266224 -1.22932 -4.44966 -1.43815 -4.65971
15 1 Ar 6.07672 0.458623 1.50486 0.0834035 -0.305936 0.965803 2.86948 -2.54133 -2.53447
16 1 Ar 4.7939 0.683792 0.988666 -0.0441389 -0.565954 0.469619 -15.3573 -2.54284 -35.6551
20 1 Ar 7.158 0.0934839 16.3783 1.3793 -1.12266 0.658353 9.31191 30.3963 -11.2034
457 1 Ar 7.50722 16.6532 0.642825 0.09647 0.828523 1.27039 -3.19183 -15.9003 -6.09666
24 1 Ar 9.3693 0.110069 0.893567 1.69067 0.62145 0.98807 -8.59538 11.649 -1.43147
59 1 Ar 8.17991 1.03634 0.329508 -0.365211 -1.81449 -1.09596 -6.74663 -0.783004 5.79898
418 1 Ar 8.28342 0.28792 1.24108 -0.123652 -1.02073 -0.875142 10.5074 -4.71992 5.85758
461 1 Ar 9.43812 1.31466 1.47379 0.453916 -0.322429 0.102326 0.365005 -1.38615 -4.52257
25 1 Ar 10.308 0.47576 0.192084 -0.97619 0.612786 -1.35865 -11.2134 -13.0669 -20.898
28 1 Ar 10.3889 0.921583 1.08145 -1.46962 0.307031 -0.146576 3.53552 11.8234 16.6613
64 1 Ar 9.28845 1.0717 0.356388 -0.613413 -1.22983 0.668265 15.6783 -33.0531 15.3061
63 1 Ar 10.0997 -0.00955233 1.66935 0.281014 -1.58645 0.640092 4.72168 33.0869 -25.4159
27 1 Ar 11.6734 0.408273 1.31684 0.806621 1.47295 1.50607 -25.5391 -21.141 9.0645
32 1 Ar 12.2212 1.05924 0.791423 1.33426 -0.0310912 -0.493541 6.2167 5.2479 -33.4353
36 1 Ar 13.4653 1.16464 1.15883 0.274924 -0.58025 0.471032 -3.86244 -7.99135 6.02566
433 1 Ar 13.4947 0.140957 1.91367 -1.1585 1.49545 -0.706817 3.96682 2.20126 -2.9482
34 1 Ar 14.2622 1.63773 0.604999 0.96364 1.19021 0.955186 34.6754 -46.1316 -39.739
35 1 Ar 14.9206 16.4561 1.28553 0.339607 -0.923078 0.467796 10.8454 54.4845 -48.6539
40 1 Ar 14.7545 0.609882 0.50627 -0.332092 0.621329 1.54156 15.7832 6.9634 3.52274
438 1 Ar 16.4553 0.777825 1.02875 0.348496 0.277481 0.192225 14.9716 29.7608 11.2591
43 1 Ar 0.863603 2.3465 0.507472 0.16718 -0.663404 -1.00352 -16.4491 -11.8078 -4.59895
445 1 Ar 1.54616 2.3001 1.43323 0.578361 0.0617906 -0.564062 11.4142 8.11543 6.68253
47 1 Ar 2.42209 2.09596 0.489847 0.553146 -0.311304 -0.255436 -13.5511 -15.691 11.1064
446 1 Ar 2.67988 2.94175 1.04645 -1.43947 -1.17866 -0.625386 1.81638 -2.90697 6.62603
50 1 Ar 3.89145 2.62745 1.39232 -1.14744 -0.257513 0.0981798 1.71138 1.24449 6.43783
51 1 Ar 4.65664 2.89309 2.11896 0.00706237 -1.58459 -0.0985774 -13.0732 -43.92 5.16481
52 1 Ar 3.54404 2.25749 0.423188 1.62497 0.111192 1.30649 -1.67496 -2.37185 -7.37784
449 1 Ar 3.1037 1.882 1.33164 1.57353 0.987571 -0.0165432 -6.01569 -3.3933 3.32741
12 1 Ar 4.55769 1.73773 0.852457 -0.0906913 0.486393 -0.514482 -2.08009 5.54764 0.826979
53 1 Ar 5.34224 1.8897 2.08557 0.194762 0.798773 -0.39098 13.7222 5.12167 -5.14216
56 1 Ar 5.5968 1.83785 0.396403 0.322103 -0.333246 -0.12237 7.84636 15.5185 2.53507
55 1 Ar 7.33003 0.743825 1.13407 1.30101 -0.964259 -0.0511256 16.1648 24.3148 23.4247
60 1 Ar 7.81613 2.30891 0.709698 0.514036 0.0180918 1.38982 -1.90658 1.52053 17.8954
95 1 Ar 6.13628 2.62208 1.40207 -0.149331 -0.457012 2.14044 -11.7963 40.4548 -4.96537
101 1 Ar 8.59755 3.0273 0.354939 0.163398 -1.90129 0.542985 -14.2189 -7.76129 2.66444
462 1 Ar 8.88869 1.96355 0.516436 -0.386965 0.199116 0.751638 -17.6169 23.5158 6.12037
68 1 Ar 9.96009 1.87061 0.626387 0.0229699 -0.698054 -0.25531 8.53849 4.32321 0.514702
103 1 Ar 9.52524 2.92289 0.742323 -0.616051 -0.676066 -0.873441 13.9133 -2.7214 -9.92172
107 1 Ar 10.9241 2.75474 0.918579 -0.996639 0.666873 -0.813179 -6.95014 -8.60457 2.12916
67 1 Ar 11.2007 1.7857 0.528816 0.486445 0.0312575 1.30846 1.02478 -4.5385 3.9501
72 1 Ar 11.9309 2.56121 0.918314 -0.0486321 0.545942 -0.484191 -4.82558 1.24703 14.0347
71 1 Ar 12.3547 1.79285 1.47664 0.379836 -0.810212 -1.56362 -7.40818 -1.52615 8.30506
70 1 Ar 12.5592 2.66582 0.148904 0.575015 0.333063 -0.0374796 -8.71578 11.8055 -31.7678
73 1 Ar 12.9645 1.81305 0.48885 -0.887829 -0.135424 0.519175 20.5299 5.46299 20.1202
76 1 Ar 12.9549 2.9574 1.07933 -0.470377 -0.487148 0.95243 -9.42794 -10.6528 -9.14933
74 1 Ar 14.6619 2.80018 0.911027 1.02168 0.993109 1.63449 1.29016 29.7256 -9.63536
75 1 Ar 13.792 2.30683 1.07668 1.05015 -1.60089 -0.101331 -47.4463 31.1401 22.6897
44 1 Ar 16.4023 2.71216 0.656455 0.124988 -0.286584 -1.03663 1.02789 0.852618 -0.77483
79 1 Ar 15.5327 1.50223 0.354758 0.09874 -0.562741 0.208934 -22.4326 -1.44069 -18.1107
82 1 Ar 0.690531 4.3799 16.5906 -0.620045 0.397677 -1.4693 -9.30803 -11.261 4.82975
83 1 Ar 0.583808 3.55428 0.744079 -0.153633 -0.783409 -0.405196 16.9975 0.428258 -10.6621
88 1 Ar 1.50187 4.37611 0.435202 -0.0109617 -1.14763 0.825199 14.1766 -4.94564 8.07534
123 1 Ar 0.645773 4.69607 0.939414 0.182873 -1.93356 -0.825915 -11.1964 -10.1851 -4.96191
48 1 Ar 1.66238 2.98601 0.484841 1.30985 -0.41546 -1.58814 12.9831 11.379 6.28455
87 1 Ar 2.47754 3.84438 0.522564 -0.907568 1.00976 -0.522516 -4.79062 5.80923 -2.87457
91 1 Ar 3.98637 3.24003 0.526199 -0.852569 1.32911 0.563859 -4.64751 -20.3753 0.386637
92 1 Ar 3.60974 4.1472 0.235896 0.0458347 0.0226007 0.0521077 -2.34612 18.5907 -12.9583
490 1 Ar 4.50115 3.65684 1.47506 1.71651 0.180379 -0.844084 -3.81415 11.4056 -10.6061
96 1 Ar 4.84654 3.76067 0.501156 -0.613676 0.720422 0.397277 22.313 8.71796 -6.8126
493 1 Ar 5.07487 2.79716 1.12259 0.706114 -0.297074 0.700888 0.924258 -3.2353 -5.0028
500 1 Ar 5.58848 3.83065 1.29612 1.09582 -0.909262 0.296097 -14.9987 -7.93507 21.6666
97 1 Ar 7.63646 3.34348 16.6293 -0.882115 0.174538 -0.198906 3.68916 -8.48664 -1.20148
100 1 Ar 7.08522 4.24727 0.149383 -1.06634 1.6168 -0.570762 13.2312 -7.95129 -9.41367
494 1 Ar 6.01212 2.95803 0.309876 -1.37456 1.24677 -0.254165 3.66533 3.17978 14.5176
498 1 Ar 7.126 3.15351 1.03501 2.28886 0.037599 -0.121346 0.548219 -4.93885 -8.21675
98 1 Ar 8.39824 4.47079 16.7897 -0.0107949 0.239711 -0.00694486 2.67738 4.76237 -5.25524
99 1 Ar 7.98169 3.82354 0.709273 0.195572 -0.376479 -0.837368 -10.7537 -6.80061 4.60131
108 1 Ar 10.3641 3.5976 0.96622 1.06632 1.61748 1.41751 -12.4888 8.9018 2.95275
112 1 Ar 11.4151 4.07476 0.973218 -0.826188 -0.0602197 -1.25249 -4.41264 -2.49573 -13.5963
506 1 Ar 11.3885 3.53176 1.91095 0.707117 -1.72757 -0.0651995 -9.20478 3.81748 1.7531
110 1 Ar 12.0855 3.55468 16.6449 -0.501219 0.959328 0.65328 -25.8505 -7.71139 1.71364
111 1 Ar 12.3815 3.67231 1.63123 1.78023 0.377062 2.66716 -4.66054 6.65679 -4.87857
113 1 Ar 12.9581 3.82881 0.290478 0.607352 0.578754 0.734357 8.67747 2.81603 4.14494
116 1 Ar 12.9874 4.56365 1.7426 -0.128698 0.195325 0.860592 -0.218278 -8.18357 -5.79044
115 1 Ar 13.8071 3.58437 0.845865 -1.19532 -0.32254 0.576764 5.41065 -11.739 2.52501
120 1 Ar 14.5678 4.26955 0.868184 1.1218 -0.0707233 0.184361 20.9112 8.52914 3.28068
514 1 Ar 14.1736 4.45254 1.87625 -0.0411721 1.8095 1.74309 -4.61246 10.2368 -4.40453
517 1 Ar 15.0344 3.68089 1.71422 -0.08707 0.436661 -0.00329796 -23.6377 9.62241 19.1837
84 1 Ar 16.439 4.67741 0.572228 0.551979 -2.03857 0.00875788 -4.35778 -16.7808 -0.434391
117 1 Ar 15.5323 3.48461 0.877148 0.947109 -0.381995 -1.09638 14.043 -2.71129 -24.9663
163 1 Ar 0.201386 5.37518 0.0613618 -1.82981 0.406116 -1.27219 10.3211 6.989 -5.94018
522 1 Ar 1.07161 5.61946 0.868899 0.132549 -0.135466 0.999786 -5.42875 19.9432 2.78154
127 1 Ar 2.71186 4.97154 0.176058 0.695792 0.847832 -0.667617 -5.45817 -7.01226 8.16505
128 1 Ar 2.10567 4.85668 1.20226 -0.986237 0.105135 1.42325 -19.4613 3.53714 -9.18603
132 1 Ar 3.48852 5.5374 0.788871 0.439107 -0.573826 0.179264 9.94773 4.85062 -25.7253
133 1 Ar 4.32256 5.36885 16.7077 1.26654 -1.14511 1.17172 10.7091 -11.8703 27.6956
526 1 Ar 3.07191 4.95294 1.48567 1.6964 -0.328851 0.698184 -9.03924 -8.44335 8.57961
529 1 Ar 4.02302 4.6385 1.19611 0.959619 0.112963 0.0296238 13.8263 -0.770197 -1.30707
569 1 Ar 3.10747 6.07691 1.63107 0.53412 -0.539847 0.589911 17.6533 -0.367551 -16.3004
134 1 Ar 6.14806 6.11003 0.207209 0.103271 0.70141 0.310006 7.09916 -32.1216 -57.7012
136 1 Ar 5.23061 4.96112 0.82127 -0.395106 -0.868475 1.49497 -1.14276 -4.55611 4.31819
534 1 Ar 6.90696 5.98865 0.939114 1.54533 0.890013 0.599497 1.47839 -5.97964 6.86946
135 1 Ar 6.63252 5.20123 0.153798 0.191165 -0.756299 -0.393892 -2.10926 -3.93352 8.34926
140 1 Ar 7.24088 6.08201 16.6925 1.24172 -0.128964 -1.00408 3.57679 7.15911 3.56478
537 1 Ar 6.61895 3.93258 1.5417 1.43813 0.333692 0.510195 5.95611 8.28062 1.36489
540 1 Ar 7.28601 4.74346 1.08041 0.554567 -0.880763 -0.150559 -2.00352 12.0098 -4.6817
104 1 Ar 9.57219 4.50039 1.31837 -0.434397 0.365522 0.198067 4.88738 -1.1666 11.7373
139 1 Ar 8.01984 5.43008 0.404398 -0.891449 -1.08746 0.203334 0.992516 2.19847 6.79317
144 1 Ar 9.15792 5.24815 0.61215 -0.164279 -1.4004 -0.294122 -10.1485 14.7282 6.61931
145 1 Ar 9.8488 4.94118 16.7408 -1.40209 -0.617847 0.277299 -6.17993 -0.757117 -33.5679
148 1 Ar 10.1958 5.83103 0.601024 1.17506 -0.240096 -0.272294 -3.97865 -2.86824 -1.1887
147 1 Ar 10.407 4.61382 0.691008 -0.430367 -0.441306 0.0362374 11.4761 -4.10581 29.7578
151 1 Ar 11.276 5.35303 1.07623 0.635827 0.441092 0.133795 0.583994 -6.48929 -11.7355
510 1 Ar 11.7843 4.60465 1.77887 1.6068 1.65992 0.112057 5.18593 7.37551 13.324
546 1 Ar 10.925 6.69821 1.85619 -0.713301 1.28544 1.20968 7.94063 -19.807 -27.743
150 1 Ar 12.8683 5.4798 0.565458 -0.219204 -0.0842243 0.507704 2.39471 2.80578 -4.88866
153 1 Ar 12.2214 4.66982 0.289345 -0.156628 -0.978723 -0.268764 -4.01149 -9.81494 1.9653
155 1 Ar 13.5816 4.71533 0.906455 0.914524 1.13835 0.134744 -8.4747 -6.49045 20.0359
157 1 Ar 15.4813 4.87276 1.00488 0.24247 0.327869 0.191649 -24.7033 28.5496 -23.1995
159 1 Ar 14.328 5.4686 1.22882 -0.34148 0.854889 1.3589 -12.3587 -5.60056 24.2617
124 1 Ar 16.6257 5.2641 1.41807 0.706628 -0.433492 1.17276 -20.9857 7.28709 0.816658
158 1 Ar 15.8043 5.99992 1.02128 -0.18696 0.673987 -0.790947 8.1273 5.43739 -16.4336
162 1 Ar 0.748005 6.46817 16.7852 -2.09636 1.46414 0.165081 2.89639 0.176654 4.54255
164 1 Ar 16.6684 6.98269 0.700488 -1.51908 -0.038708 1.03565 -6.97971 22.2099 -8.11717
168 1 Ar 1.32237 6.88126 1.00545 -0.995192 -0.168413 -0.523268 2.90949 -12.5512 10.3098
165 1 Ar 1.78547 5.52367 0.178933 0.404343 -1.24004 1.11639 -6.97287 -8.18643 -17.7067
166 1 Ar 2.01635 6.86405 0.0652128 -0.41364 0.024595 -0.864223 -13.1697 -2.31895 -4.39487
167 1 Ar 2.51148 5.98003 0.678609 0.0948181 1.54987 -1.02004 0.643786 1.50951 39.7324
566 1 Ar 2.32806 6.74169 1.72202 0.148092 0.340259 0.120074 -6.86687 9.90389 -8.11694
170 1 Ar 4.8538 6.94266 1.01433 -0.0284013 -0.396472 2.01524 -3.10688 11.9011 -34.9342
171 1 Ar 3.81131 6.4792 0.370581 0.321025 0.230019 1.65091 17.7628 -0.422521 20.353
172 1 Ar 2.83676 7.03061 0.636344 -1.92009 0.762567 -0.307302 2.35071 7.59954 26.8728
173 1 Ar 4.36602 5.90366 1.27866 0.280475 -1.32633 0.14365 -14.1907 3.68 13.7471
175 1 Ar 5.94984 6.68759 0.925007 0.398272 -0.36969 -0.307828 -12.7891 45.4775 50.8378
3736 1 Ar 5.1003 6.0576 0.600786 0.964739 -1.6483 -0.817657 16.374 -15.5813 -25.5727
177 1 Ar 6.94034 6.9739 0.453319 -0.324649 -1.08708 -0.123091 -6.22586 6.203 -0.320655
179 1 Ar 8.00526 7.11932 0.464365 -0.582605 -0.0349489 -0.00337588 7.57339 5.56763 -6.34064
180 1 Ar 7.48346 7.96721 1.02062 0.919234 0.405025 2.37126 -2.83729 -16.143 3.59434
538 1 Ar 7.87624 6.37996 1.16782 0.352306 1.75812 0.208399 -30.5153 -6.89437 17.3474
574 1 Ar 6.55696 7.52558 1.38102 -1.12401 1.02212 0.0828001 11.3473 -0.689145 -13.9454
184 1 Ar 8.50328 7.36002 1.35246 0.0734824 -0.182455 -0.333981 -5.4978 -0.63527 4.55404
183 1 Ar 8.8425 6.42641 0.981432 0.57769 -0.587417 -0.430841 27.9435 -9.85413 -18.0404
185 1 Ar 10.166 6.86304 0.108525 1.11725 0.780964 -0.159955 -16.1346 -10.1155 -9.98979
542 1 Ar 9.38107 6.77771 1.80239 0.189098 -0.711911 0.531621 3.27804 2.42225 8.80555
582 1 Ar 9.35806 7.45536 0.533132 1.36416 -0.565092 0.500017 -5.96889 -0.878649 0.562557
585 1 Ar 10.2666 6.89122 1.08908 0.333241 0.274835 0.408054 -8.22388 0.699091 14.5393
152 1 Ar 12.1047 7.34863 1.27932 -1.0654 -0.918335 1.22988 11.8482 -8.98198 -1.69632
187 1 Ar 11.3532 7.21901 0.236814 -0.209967 0.283037 -0.563211 8.08808 -8.5448 -4.72534
189 1 Ar 11.1734 5.98884 0.156491 -1.59072 -0.372948 0.202875 -16.5941 9.25514 -4.33933
550 1 Ar 12.0393 6.12539 0.73984 -0.726684 -1.66648 0.603815 0.539092 1.60123 12.3242
589 1 Ar 11.2848 7.286 2.56521 -0.494312 0.646743 -0.159251 14.8247 17.8294 14.2382
191 1 Ar 12.8355 6.85076 0.563605 -0.206893 -0.454486 -1.07657 12.3578 -9.87813 20.9045
160 1 Ar 14.7173 6.64402 0.830275 -0.33829 0.483843 0.45451 -6.6728 0.282903 4.69453
195 1 Ar 14.8165 7.55182 0.0639998 0.956375 -0.524695 -0.570866 -0.771825 -13.824 1.45677
199 1 Ar 15.6293 7.10321 1.21363 -0.153273 2.20942 -1.26636 15.6922 -0.256977 -5.04938
561 1 Ar 0.222745 6.21317 1.23185 1.08846 -0.390966 0.147922 10.8424 -9.07662 13.3258
201 1 Ar 0.0827372 8.04603 0.268868 0.653839 0.818137 0.337959 12.507 -0.511251 1.54557
203 1 Ar 0.587318 7.90052 1.46121 -0.321112 0.734967 -0.0398294 -7.45843 -14.3511 -1.34212
202 1 Ar 0.760096 8.84533 16.7439 0.170381 -0.48219 -0.274687 6.3656 -5.37203 -1.22234
208 1 Ar 1.14745 8.73527 1.30871 0.510948 0.0298193 1.04512 -3.19883 12.1958 3.47563
207 1 Ar 2.372 8.05461 0.60139 -0.118029 -0.0604483 1.24598 -9.96517 -1.38356 -4.51004
206 1 Ar 1.86268 9.05074 0.6311 -0.0495372 -0.226881 1.04029 7.02609 0.487592 -8.80607
212 1 Ar 2.94704 9.00058 0.70958 1.06932 1.19728 -1.99708 -3.35815 8.21836 -4.62137
605 1 Ar 1.81082 7.84218 1.51079 0.040238 0.0712846 -0.633072 -8.38842 2.65188 -7.23422
211 1 Ar 4.29696 8.16864 1.43237 0.0591253 -0.756031 0.0957068 4.47322 1.36925 -13.4967
210 1 Ar 3.4028 7.99277 0.722205 -1.26286 -0.97695 0.585002 13.8036 -2.00751 -0.0894923
176 1 Ar 5.389 7.74466 0.439845 -0.579777 1.55984 -0.210404 15.1422 -22.1181 -23.0122
214 1 Ar 5.57488 8.76369 0.17602 0.220071 -0.357832 -0.985751 -0.238859 -4.32584 -10.699
216 1 Ar 4.47425 8.07912 0.345367 -1.34933 -0.882998 1.15767 -32.843 14.2373 -4.21736
613 1 Ar 5.58529 7.92195 1.38184 -0.460085 -0.414272 0.567859 -4.60616 9.75685 31.5206
174 1 Ar 6.37304 8.08071 0.432437 0.800638 0.477344 -0.547035 14.9251 1.84309 49.5923
178 1 Ar 7.31737 8.20607 16.754 0.0142113 -0.0343342 0.751881 -4.06244 -7.13309 -6.66237
219 1 Ar 7.76221 8.91358 0.755703 -1.36777 -0.561214 1.3511 -3.03179 7.87352 -19.4912
614 1 Ar 6.42336 8.68407 1.3404 0.780508 0.784494 0.781611 8.99669 -10.9553 -7.26061
182 1 Ar 8.32068 7.97468 16.67 -1.77686 0.55266 0.166929 17.6641 3.49708 4.97682
221 1 Ar 7.89156 9.01123 16.2447 0.809428 -0.255123 -0.435242 -14.8263 -22.0471 5.50502
223 1 Ar 8.6924 8.35813 0.963348 -0.566173 -0.530974 0.29177 -16.272 -26.6812 -39.1807
188 1 Ar 10.5165 7.86843 0.142063 0.542361 0.33988 2.37702 -6.01805 6.76102 8.45355
225 1 Ar 9.36379 8.49713 16.7706 0.508698 0.37672 1.40524 -5.4683 -8.23899 -0.577294
227 1 Ar 10.609 8.97154 0.378676 0.707323 0.0940129 0.195992 4.21468 -15.7486 30.8393
586 1 Ar 11.1285 7.57676 1.20474 -0.85573 0.321204 -0.876043 -24.408 11.8307 5.31983
625 1 Ar 9.79097 8.35972 0.970783 0.0119858 1.4104 -1.04277 6.03363 3.43775 5.64644
192 1 Ar 11.8462 8.19196 0.575831 -0.322361 1.07571 -0.137311 7.84008 -8.08566 8.05019
229 1 Ar 11.4749 8.56404 16.4863 -0.453672 -0.951708 1.52959 6.43966 12.9258 6.22399
190 1 Ar 12.6007 7.56849 16.7076 -0.972706 0.784147 -0.853872 0.280453 23.6261 -10.8015
196 1 Ar 13.0235 7.78606 1.51754 0.575469 -1.21773 1.84567 -32.5549 13.8377 19.534
194 1 Ar 13.9064 9.38071 0.0174207 0.926031 0.389142 -0.378572 6.89055 -67.6917 -7.75735
197 1 Ar 15.8861 8.0527 0.516987 -0.232451 0.895698 -1.13042 -17.5814 0.375166 -1.22739
235 1 Ar 13.9731 8.23006 0.407503 1.49695 -0.822973 -0.840985 28.3644 -1.66292 29.8463
236 1 Ar 14.8569 8.71984 1.33005 -0.124043 0.275565 0.817022 4.38407 -7.46177 -26.7474
637 1 Ar 15.2321 8.30987 2.25054 -0.400582 0.603234 -0.119311 -14.8857 -6.05882 -8.20294
239 1 Ar 16.2936 8.02806 1.5069 -0.956785 2.2012 0.659005 -2.10967 6.79504 6.1553
240 1 Ar 15.6635 9.17148 0.797185 1.09216 -1.00645 0.129216 4.8154 -3.60208 -9.27973
204 1 Ar 16.7784 9.03156 0.939132 -0.934208 0.529325 0.0607971 2.24609 -7.33041 -2.65822
243 1 Ar 1.0714 9.75781 0.774116 -0.369931 -0.777918 0.553145 -5.56471 -13.397 13.1492
242 1 Ar 1.25194 10.9777 16.3828 0.0392398 1.26668 -0.409427 -11.0239 0.479669 6.68867
245 1 Ar 1.69044 10.4928 0.403837 -0.160501 0.240052 -0.822478 2.50116 -6.65999 -11.3963
247 1 Ar 2.34017 9.85258 1.26315 -0.0339231 -0.177959 -0.649669 -14.0982 -29.4349 33.7398
249 1 Ar 2.73536 10.3335 0.534139 -2.10869 0.36242 -1.24276 13.1698 21.255 -43.0945
248 1 Ar 2.15663 10.8758 1.2382 0.41633 0.353221 0.278218 45.4526 -26.3936 -16.0633
251 1 Ar 4.04066 9.224 0.384624 1.97376 -2.14955 0.958559 -15.0006 -5.60912 6.46795
612 1 Ar 3.55185 9.90524 0.952293 0.820603 -0.298411 -0.47061 -4.57636 -14.0804 24.9245
653 1 Ar 4.72512 10.2442 1.02206 -0.320443 -0.962472 -0.144117 -33.9852 -7.85721 8.93819
253 1 Ar 4.82641 8.93895 1.00204 -0.266736 -0.877293 -0.334167 19.2665 -17.8914 -18.0587
255 1 Ar 5.71879 9.42382 0.986551 -0.213714 2.30944 -0.846989 12.9682 19.026 3.00171
256 1 Ar 5.57882 10.5134 0.654214 -1.17006 1.5697 0.442615 32.7692 13.343 -14.7153
215 1 Ar 6.76817 9.06777 0.207957 -0.871997 -1.69866 -0.0926522 -0.660391 15.4952 13.3376
220 1 Ar 6.76983 9.69401 1.234 -0.29273 -0.72763 0.260045 5.656 -6.93792 13.924
297 1 Ar 6.6391 10.4085 0.528655 -0.637648 0.623002 -1.49673 3.6148 12.8863 -12.6842
218 1 Ar 7.73966 10.2247 0.33991 0.967817 -0.251036 0.0786838 -11.7502 1.70401 10.5604
259 1 Ar 8.3436 10.7238 1.23061 -0.962902 -1.18246 0.41048 -10.1181 32.9745 0.211054
224 1 Ar 8.48515 9.74905 1.21397 0.430433 -1.20442 -0.152174 3.73344 -24.8635 -4.8158
222 1 Ar 8.59714 9.21884 0.196167 0.302847 -0.329792 -0.248715 6.60133 1.4625 6.18686
228 1 Ar 9.99488 9.42977 1.42197 -0.0210572 1.08896 1.16974 -3.72958 17.5703 -13.9169
265 1 Ar 10.0191 10.3972 0.689844 -0.634151 0.443822 1.40604 5.43002 9.47835 3.38141
226 1 Ar 10.8172 9.8376 16.7217 0.86295 1.98847 0.362121 -7.54882 19.6065 -7.48883
232 1 Ar 11.8334 9.73 0.152436 -1.41966 0.710876 0.510132 5.23348 -0.867613 9.45482
267 1 Ar 11.0164 9.96052 1.28786 -0.588285 0.585288 -0.748214 -7.6762 -0.541459 -10.9323
269 1 Ar 11.3178 10.8751 16.7932 0.960463 1.52418 0.447029 -3.37272 -6.37006 -2.26176
272 1 Ar 12.0106 10.4075 0.957765 -0.300711 -0.493314 -0.691095 0.186761 7.34939 4.90902
231 1 Ar 13.4839 8.96901 0.96271 -0.126134 0.228018 0.551729 -10.7935 12.0127 -5.53441
271 1 Ar 12.6806 9.97971 1.76204 0.418605 -0.0978877 -0.0502118 18.9625 54.1215 -13.61
273 1 Ar 13.712 10.2672 0.298345 -0.265967 0.0212838 0.624242 2.95981 60.2238 10.2168
234 1 Ar 14.7368 9.73858 0.647291 -0.987365 0.284132 -0.648217 -7.0818 0.25358 -2.48457
275 1 Ar 15.3735 10.6507 0.607512 0.117255 -0.0680681 -0.750354 12.1041 -2.885 9.56995
241 1 Ar 0.390836 9.83264 16.7763 -0.179738 -0.651287 -0.645125 -20.7731 -7.07221 -14.9413
279 1 Ar 16.3673 10.0651 0.717431 0.581784 1.19719 -0.114056 -0.506176 -5.99998 6.16165
244 1 Ar 0.554081 10.6705 0.511906 1.23898 -1.29903 0.382893 -5.35749 24.2179 -6.06009
283 1 Ar 1.42852 11.4789 0.717949 -0.0600937 1.0462 -1.11251 -14.704 2.5304 -24.4734
285 1 Ar 2.60545 11.5227 0.00245967 0.453672 -0.582305 -0.648214 -16.0899 -0.964362 -11.5521
287 1 Ar 3.15102 11.2776 0.825272 -0.020142 1.16965 -0.857955 1.75605 3.51818 19.0053
252 1 Ar 3.24455 10.5843 1.69374 0.374233 0.353787 0.158589 -12.714 9.57506 -3.63381
250 1 Ar 4.6034 10.6444 16.492 0.790891 -1.02451 -0.141515 20.9523 2.55214 -2.99594
291 1 Ar 4.16953 11.5835 0.711005 0.554976 0.102519 -0.597852 9.80102 -6.66328 -8.09358
649 1 Ar 3.77702 10.5962 0.27444 -0.196874 -1.3512 -0.805733 -1.8806 18.067 3.26358
650 1 Ar 5.19192 11.3146 1.6064 0.830638 1.29284 -0.158331 -1.40045 9.32955 -15.0849
689 1 Ar 3.819 11.578 1.71731 -0.00472993 0.224603 0.133017 -9.14738 -3.06153 2.22521
654 1 Ar 6.44321 11.631 0.978414 0.5513 0.00638951 -0.0924773 -24.2712 -5.36482 6.29235
693 1 Ar 5.45781 11.7867 0.549496 0.266052 -0.370331 0.171431 3.35888 -13.3337 2.64888
295 1 Ar 7.17049 12.2686 1.53597 -0.284398 0.443004 -0.708933 4.18482 -0.414257 -17.2568
258 1 Ar 6.89935 12.3356 0.35214 0.764619 -0.861888 -0.799579 6.75038 10.0468 3.64548
264 1 Ar 7.00396 10.8099 1.63256 0.789813 0.22981 1.28271 -5.26318 0.157209 -7.56642
301 1 Ar 7.43105 11.4421 0.913835 -0.765697 -0.633415 0.207542 28.216 -5.11241 -4.78236
662 1 Ar 9.27836 11.2299 0.893762 -0.610423 -0.767196 -0.986112 -0.397761 -2.72785 3.26086
263 1 Ar 8.79232 10.2685 0.32951 1.7115 0.363107 0.520346 16.0067 7.21688 -6.60418
268 1 Ar 10.1224 11.7614 1.41767 0.321515 0.773645 0.459328 6.12133 -18.4573 -0.45476
266 1 Ar 9.90463 11.4953 16.7825 -0.476481 -0.213696 -0.0899678 4.37991 -8.07901 48.1026
309 1 Ar 11.8214 11.5508 0.940658 -0.372042 0.496762 -0.0868579 1.85036 -11.6264 -14.7345
666 1 Ar 10.9178 11.0615 0.96608 -0.545119 -0.439908 0.860037 -15.9029 -10.6414 0.881591
270 1 Ar 12.7462 10.9314 0.0583366 -0.426546 -0.772903 0.204233 -3.97746 -2.6183 -1.3297
311 1 Ar 13.126 10.9618 1.1135 0.722621 -0.446228 0.329427 -7.72142 -8.61742 12.969
310 1 Ar 12.7568 12.0178 0.538339 1.81456 0.283994 -0.634614 4.19078 -9.01046 -15.254
276 1 Ar 14.3093 10.8079 0.994203 -0.265963 -1.1514 -0.142279 7.53314 -2.48949 4.90176
313 1 Ar 13.6848 11.3867 0.369209 -0.833395 0.137541 -0.0619539 15.6187 0.728983 5.85637
315 1 Ar 15.0681 11.6045 1.14471 -0.518966 0.738065 0.254338 1.22948 -16.2405 12.3135
319 1 Ar 16.2096 11.4336 0.638681 0.649398 -0.516869 -1.15338 -5.65754 -11.7887 -3.17024
284 1 Ar 0.404114 11.8352 0.592727 0.340961 1.77106 -0.141036 2.1134 4.13431 11.0987
282 1 Ar 1.11283 12.3123 16.6868 0.0157457 -0.00238575 0.0331541 -0.652252 0.543061 0.325232
323 1 Ar 0.214136 12.8527 1.69372 0.62456 -0.167097 0.431926 6.50333 -44.5383 49.8865
286 1 Ar 3.09875 12.7016 16.0229 0.240927 -1.18487 -0.591913 -1.73268 3.98913 -14.9806
288 1 Ar 2.13358 12.8903 0.199539 0.349658 -1.25134 0.67099 -0.353781 1.74398 -4.91288
327 1 Ar 3.22403 13.2212 0.102376 -0.0316162 -0.616108 -0.962501 -6.6127 7.05567 2.46401
686 1 Ar 2.27848 12.0772 0.899827 -1.28646 0.809204 0.111725 13.4074 -19.8612 -25.7754
292 1 Ar 3.49589 12.1031 0.0341661 0.424074 -1.15471 0.312985 6.49205 3.09856 0.877613
729 1 Ar 3.90428 13.19 0.871574 0.394737 -0.699883 0.933525 13.8728 1.58014 -4.07873
331 1 Ar 4.7186 12.5061 0.471331 0.0482382 0.809773 1.30323 -15.1437 20.881 -13.7362
296 1 Ar 6.34675 13.2082 16.5123 0.236705 1.59658 0.0221061 8.86505 14.15 -2.7419
335 1 Ar 5.35699 13.97 0.174791 -0.87833 -1.24027 -0.69228 -0.29624 -16.2992 -12.4016
694 1 Ar 5.70665 12.8405 0.52613 -0.817589 -0.150882 -0.176212 10.4206 12.1763 1.65008
733 1 Ar 4.90577 13.4941 1.06379 0.0846981 -1.47018 0.159157 36.1369 -31.2593 4.08943
300 1 Ar 6.83805 13.4093 0.747928 -0.615186 -0.306473 -0.595986 7.43504 -6.60341 -5.85113
737 1 Ar 6.95651 13.9199 1.72692 0.503222 1.29224 1.2339 7.69871 8.88479 3.01808
262 1 Ar 7.98442 12.213 0.348503 -0.220227 -0.442752 -0.643272 -17.7673 0.817804 31.2067
339 1 Ar 7.77853 13.1205 1.54027 0.80078 1.33068 0.415159 4.37136 11.3001 -3.87031
341 1 Ar 7.50142 13.1953 16.656 -0.824267 -0.294787 -0.296702 0.169673 -4.78078 0.439045
302 1 Ar 8.62753 13.0843 0.485153 0.65086 -0.702215 -0.629365 -2.12147 -5.99768 -8.98912
702 1 Ar 9.21927 12.3044 1.25845 0.409031 1.1618 0.841892 26.7917 18.0445 -30.2391
305 1 Ar 9.79038 12.8221 0.288952 0.729807 -1.13987 2.31148 -8.42907 -8.92487 -2.79952
308 1 Ar 10.2105 12.7771 1.3645 -1.10865 0.852439 -0.342797 4.49919 5.73366 -4.8989
345 1 Ar 10.3224 13.6294 0.682804 -0.228251 0.21646 -0.841557 -0.508082 5.56871 -2.47195
745 1 Ar 10.0434 13.5998 2.00297 0.194771 -0.976322 -0.681825 11.3735 12.7684 -14.2155
306 1 Ar 10.9394 12.0265 0.465117 0.493699 -0.787817 1.08748 -1.68952 4.69011 -2.48739
312 1 Ar 11.8661 12.8284 0.575573 -0.572817 0.877168 0.82832 -3.94999 -2.50903 17.3955
347 1 Ar 11.1828 13.262 1.29379 0.506418 0.312186 0.48658 0.517666 11.2805 -6.28257
352 1 Ar 12.4268 13.965 1.15338 0.862903 -1.27377 0.0711056 -18.5576 -1.45909 14.5901
351 1 Ar 12.9299 12.9165 1.03757 0.855294 -0.389549 1.70132 5.91996 11.5318 10.9898
317 1 Ar 14.8231 11.882 0.215632 1.37916 0.450482 -0.249143 -14.8551 33.1589 -0.961709
316 1 Ar 13.8929 11.8492 1.5327 0.0794256 -0.239263 1.40989 -3.22481 -29.0122 31.7873
320 1 Ar 14.741 12.9493 1.49914 -0.0723315 1.43043 -0.907874 -6.44921 -2.97626 23.5957
355 1 Ar 13.9711 13.6028 1.36174 -0.827351 0.874265 0.82946 -17.9524 9.39635 5.57449
356 1 Ar 13.7837 13.31 0.39285 -0.371386 0.128844 0.601633 -4.16861 27.4743 -24.3414
321 1 Ar 0.0855246 12.9074 0.690228 0.724602 0.0359375 -0.981151 -6.52121 -22.978 -37.5256
357 1 Ar 14.9128 13.5016 0.518386 -0.853544 0.526012 -1.19002 -0.739398 -5.32148 -5.25265
318 1 Ar 15.4063 12.5933 0.852692 -1.31223 0.917314 2.26321 20.5531 -6.22182 -19.925
359 1 Ar 16.0592 13.6186 0.97275 0.0560132 -0.38426 0.949283 -16.5292 -55.2473 -2.78491
322 1 Ar 0.436389 14.3407 0.357856 -0.836337 0.311164 -0.39424 -14.6936 -18.8311 -18.5015
328 1 Ar 1.47093 13.6222 0.63154 -1.35578 -1.15599 1.47798 -4.19656 7.66416 4.82627
722 1 Ar 0.812317 14.5809 1.26054 0.197494 -0.643421 0.859691 26.8031 -12.5403 -3.2457
326 1 Ar 2.23101 14.2724 16.6657 0.111474 -0.59112 -0.16621 -4.62572 -7.78971 -11.9646
365 1 Ar 1.34641 14.8602 0.281586 -1.7504 -0.888839 -1.02935 3.9027 -2.68135 8.56739
726 1 Ar 2.26135 14.5896 0.845392 -0.369794 0.202297 0.300618 10.3585 -1.01608 6.28281
332 1 Ar 3.25719 14.3597 0.283184 0.257392 -1.40271 -0.106548 4.64544 0.102114 4.06168
336 1 Ar 4.24439 15.2884 0.483676 -0.38438 -0.542514 -0.705981 -4.35967 14.819 9.90476
730 1 Ar 4.24822 14.202 0.977037 1.29556 0.192392 -1.205 -17.8933 36.0418 -8.12441
334 1 Ar 6.29485 15.349 0.390232 0.561002 0.646732 -0.0816757 -27.1658 -28.9423 22.9727
736 1 Ar 5.2698 14.6544 0.926053 0.361051 -0.934235 -0.307677 -7.66338 1.06133 4.23915
740 1 Ar 5.98184 13.8242 1.16186 0.881655 0.452106 -0.892803 -21.0355 16.4899 -9.795
338 1 Ar 7.43348 14.3631 0.722889 -0.288402 0.429016 -1.26283 -12.2981 -9.4398 2.78813
340 1 Ar 6.49358 14.7626 1.22674 -1.37072 0.523335 0.737861 1.64945 -4.40879 6.21712
379 1 Ar 7.27492 15.0963 16.7532 -1.67621 0.280713 0.874113 5.32669 -11.7621 -37.0609
343 1 Ar 9.36909 13.4577 1.13287 1.00921 0.377304 0.78058 4.5627 2.79475 -3.62107
344 1 Ar 8.29976 14.944 0.525405 -0.506843 0.85907 -0.598421 -2.58117 26.1454 -7.43724
3944 1 Ar 8.16896 14.0738 16.5411 -0.949016 0.523265 -0.695952 0.569022 6.9108 8.56483
342 1 Ar 9.34701 14.6768 0.389971 1.012 0.798242 1.21741 1.33658 9.61213 11.4778
348 1 Ar 10.3398 14.4599 1.44844 -0.369118 -0.824834 -0.301168 -2.21371 5.68277 0.823284
385 1 Ar 10.3987 15.0768 0.394715 -0.494454 1.07504 1.3292 -4.81309 -8.29538 -8.09324
346 1 Ar 11.1382 14.2759 0.723214 1.2725 0.309097 -0.0527197 6.22666 -0.35955 -9.22681
387 1 Ar 11.748 14.8757 1.30336 2.24897 0.362603 -0.410917 16.8995 -5.34314 -8.89405
389 1 Ar 12.2241 14.5789 0.114458 2.46824 -0.0463812 0.989078 -3.01431 -0.753325 8.07865
391 1 Ar 13.1962 14.3899 0.586746 -0.51595 0.233382 0.869009 21.6241 19.642 2.81345
789 1 Ar 12.855 14.8362 1.61752 -0.562238 -0.215482 0.864913 -0.708611 2.42857 10.3672
793 1 Ar 13.9341 14.751 1.578 1.55769 -0.35243 -0.100038 -1.23801 -0.892084 2.81263
393 1 Ar 13.9506 15.3551 0.219206 0.0848225 -0.184985 -0.284689 -1.72687 -3.90651 10.2977
360 1 Ar 14.2973 14.3739 0.598445 -0.733169 -1.15031 0.839116 -15.6407 -9.50657 2.77409
395 1 Ar 14.9133 15.1473 1.3505 0.538992 0.0015611 1.09493 -4.55288 2.27013 1.79141
324 1 Ar 0.301526 13.68 1.24535 -0.811256 -1.13797 -0.245992 6.53878 79.3269 -9.09435
358 1 Ar 15.8143 13.4148 16.6826 0.0464071 0.835546 -2.17782 28.6495 47.7952 8.52272
758 1 Ar 16.2183 14.5565 1.06816 1.66124 -0.827196 -1.16459 8.66286 41.5997 -0.953078
3 1 Ar 0.266868 16.6302 0.751379 1.68395 0.652688 -0.49877 -12.9463 -8.43265 2.07694
363 1 Ar 1.34223 16.07 0.655306 -0.0288219 0.833325 0.047098 -5.396 5.76568 -5.87506
761 1 Ar 0.592326 15.8944 1.50344 -0.956883 0.127509 0.427534 11.769 5.51319 -0.149078
367 1 Ar 2.17775 15.4769 0.153076 0.590512 -0.133127 -0.957665 3.95117 0.146889 -2.01147
372 1 Ar 3.26725 16.6023 16.5607 0.73586 0.784656 -1.28616 -5.93954 -2.49633 -2.76385
765 1 Ar 1.55736 15.2689 1.29634 -0.155382 -0.7503 -0.72096 5.6418 4.16092 -15.2103
762 1 Ar 2.37418 16.474 0.561063 1.10147 0.731318 -1.90947 9.34866 -12.0639 5.88316
766 1 Ar 2.67038 15.5436 1.24436 0.965906 -2.50163 -1.46881 -8.1452 2.76344 5.67801
371 1 Ar 3.23726 15.5965 0.349304 -1.04451 -0.891142 0.0398933 -3.41837 -12.7838 -18.9653
370 1 Ar 4.32267 16.4745 0.0675287 1.05782 -0.144055 -0.204968 -6.92664 7.78494 15.3076
773 1 Ar 4.54501 15.5811 1.44221 -0.0186988 0.331794 -0.402269 10.3475 -6.02712 0.724768
770 1 Ar 3.42784 16.3527 0.995411 0.0756126 0.883731 0.0190002 10.1684 14.1431 7.14415
373 1 Ar 5.35339 15.9486 0.313894 -0.716223 0.935238 -1.13547 13.4747 -20.0536 -5.62349
375 1 Ar 6.47505 16.2537 0.978546 0.0832095 -0.636779 -0.069194 -1.71171 5.55674 6.85968
374 1 Ar 5.52746 0.197536 0.40009 -0.382561 0.410949 -1.32979 15.4222 1.51951 -7.03268
376 1 Ar 5.08475 16.4195 1.14696 -1.23621 0.866793 2.81476 5.53771 10.1727 23.6409