ITEM: TIMESTEP
1400
ITEM: NUMBER OF ATOMS
4000
ITEM: BOX BOUNDS pp pp pp
0.0000000000000000e+00 1.6795961913825074e+01
0.0000000000000000e+00 1.6795961913825074e+01
0.0000000000000000e+00 1.6795961913825074e+01
ITEM: ATOMS id type element x y z vx vy vz fx fy fz
4 1 Ar 0.524168 1.06297 0.303749 1.2699 -1.52269 0.597565 21.0867 -16.5134 11.3885
8 1 Ar 1.48383 1.27535 0.867607 0.056082 -0.902468 -0.0421151 6.47183 -1.3211 -9.76397
368 1 Ar 1.39695 0.416734 0.275973 1.2825 -0.364891 -0.0123969 -0.87309 -15.6333 -14.5391
401 1 Ar 0.742049 0.434685 1.15258 1.04173 0.0656151 -0.196871 4.84636 3.52086 9.21727
6 1 Ar 3.40468 1.44683 0.329177 1.41197 0.309034 -1.43299 6.48546 -13.4521 3.43213
7 1 Ar 2.56114 0.761419 0.34625 1.34933 2.11848 -0.452106 -5.78813 -17.8698 11.6017
412 1 Ar 3.26268 0.451479 1.29385 -0.119194 -0.775281 1.18158 -0.49971 15.201 -0.586823
409 1 Ar 3.84631 0.404225 0.311727 1.42231 -0.257051 -0.688347 -13.7244 12.7963 3.65632
410 1 Ar 4.06028 1.30635 1.21958 0.406385 0.691459 0.375028 -0.576653 2.64832 3.1986
14 1 Ar 5.60988 1.10813 16.4077 2.00122 -0.543543 1.97741 1.01606 0.090571 3.5745
15 1 Ar 6.27616 0.427295 1.46283 -0.472093 0.957829 -0.144938 -1.44674 18.0352 -15.5073
16 1 Ar 4.80194 0.641044 0.777497 0.273959 0.0103399 0.246287 -2.48165 16.463 2.71304
20 1 Ar 7.23485 0.12086 16.2881 -1.25942 1.02927 0.281718 20.0825 3.76464 9.52828
457 1 Ar 7.39508 16.6409 0.605191 -0.37052 0.182069 0.280631 -22.6971 4.72128 2.6143
24 1 Ar 9.77912 0.0140239 1.06548 0.394791 0.238684 0.944584 -9.32824 -2.62741 5.57614
59 1 Ar 8.07848 0.621038 0.187291 0.132679 -1.56842 0.794131 -17.3839 13.1065 2.14351
418 1 Ar 8.19768 0.152444 1.1526 -1.82857 0.0692991 -0.313943 17.2895 0.364206 15.0662
461 1 Ar 9.59864 1.67373 1.41041 0.821153 2.85242 -0.888218 -1.83534 0.0708102 -3.6192
25 1 Ar 10.3299 0.335926 0.24151 -0.122321 0.368828 0.370371 -18.9693 7.59191 -32.7866
28 1 Ar 10.6247 0.988831 1.02848 1.24665 -0.178211 0.250807 -2.41821 5.74429 13.2669
64 1 Ar 9.23445 0.853858 0.619882 -0.471641 -1.12803 2.16251 -0.0432581 13.9787 7.74629
63 1 Ar 10.2766 16.6051 1.97449 -0.313131 -0.195196 0.134893 -23.3909 10.9251 -1.15285
27 1 Ar 11.8154 0.707755 1.41007 0.904933 -0.877951 0.498235 -23.8978 18.0091 -58.809
32 1 Ar 12.5097 1.07278 0.640307 0.772553 -0.605486 -0.539765 2.05083 2.76566 6.8647
36 1 Ar 13.532 1.55745 1.17714 -0.862869 1.1524 -0.726126 -0.856969 12.1231 -6.01204
433 1 Ar 13.6523 16.718 1.99619 0.473198 -0.59223 0.372517 -6.32867 3.18168 -4.4185
34 1 Ar 14.4325 1.74608 0.596165 0.920774 0.0659308 -0.331519 2.76455 1.71381 -5.12371
35 1 Ar 14.8256 16.4564 1.2571 0.129383 0.438838 0.965692 2.94052 -8.03002 19.9929
40 1 Ar 14.685 0.467932 0.679997 -1.26162 0.466579 -0.224142 -1.88184 15.2742 -14.1281
438 1 Ar 16.4756 0.764973 1.32908 -0.701091 -0.254496 0.22144 2.58703 7.66277 -4.50589
43 1 Ar 0.881881 2.09486 0.34059 0.757072 -0.254673 -0.0929344 21.6267 -16.5996 -16.2301
445 1 Ar 1.58423 2.24921 1.19265 -0.0235491 0.0496004 0.919168 29.4586 -11.7807 2.55137
47 1 Ar 2.4627 1.81269 0.573884 0.350264 0.661893 -1.13284 -18.3282 -10.7251 20.9477
446 1 Ar 2.67318 2.93009 1.1162 -0.0710857 -0.522613 1.35227 21.4301 -9.94545 -16.5954
50 1 Ar 4.00332 2.75509 1.22361 -0.0436218 -2.42199 -0.667676 -3.65852 0.471745 7.80064
51 1 Ar 4.57246 2.91486 2.10312 0.794194 0.383073 -0.743197 -11.3995 3.67269 -5.1183
52 1 Ar 3.73708 2.43872 0.292543 -0.565656 0.864096 0.843644 -46.1258 -8.82706 3.11425
449 1 Ar 3.14281 1.94769 1.42433 -0.649858 -0.366875 1.15082 -12.4522 -7.69989 -18.6186
12 1 Ar 4.89151 1.67172 0.45827 -0.734302 -0.837135 -0.316455 2.65104 1.86094 14.7318
53 1 Ar 5.47983 1.54245 1.42021 0.740783 -1.55544 -1.27685 -8.05776 5.84022 -1.79137
56 1 Ar 5.74439 2.25485 0.316734 0.733124 0.29834 -0.746265 5.44161 -16.7775 5.91972
55 1 Ar 7.28971 0.775875 1.17832 -1.2353 0.145141 -0.09828 -11.0863 -1.02712 -13.0286
60 1 Ar 7.86403 2.54165 0.838964 0.964829 1.86058 0.575277 7.32589 -0.548983 6.37801
95 1 Ar 6.21454 2.69136 1.333 1.03957 0.972982 -0.0850002 10.8178 -7.85164 -41.969
101 1 Ar 8.79277 3.1506 0.448393 0.0243466 -0.65914 0.535813 -19.9436 -19.8388 -7.81528
462 1 Ar 8.74173 1.93705 0.595698 -1.10857 0.755259 0.998771 18.1226 1.71213 5.6915
68 1 Ar 10.0571 1.5256 0.205352 -0.151849 0.308587 0.467894 4.29431 7.54521 24.1296
103 1 Ar 9.59732 2.73315 1.0232 -1.34608 -0.9913 -1.16719 -3.32413 -18.6902 -24.3386
107 1 Ar 10.5234 2.35414 0.686133 -1.1054 -1.34185 0.0104894 5.83755 -8.56258 0.474758
67 1 Ar 11.5979 1.62306 0.861645 1.26071 2.68067 0.812472 -9.33835 9.84133 -1.69695
72 1 Ar 11.3658 2.88557 1.06351 -0.946292 0.883395 0.901545 14.9601 5.5975 -12.243
71 1 Ar 12.3403 1.80314 1.61792 -0.223705 0.297778 0.852188 3.48698 3.0503 0.00234267
70 1 Ar 12.8142 2.73783 16.4896 0.544586 -1.12925 -0.364127 9.92345 -0.373738 -6.96739
73 1 Ar 12.8418 2.27037 0.616794 -0.642144 0.939203 0.831336 -0.797414 -10.2082 8.46366
76 1 Ar 12.7397 3.22978 1.1148 0.204505 0.323262 0.80114 -7.00902 -20.6105 -4.82422
74 1 Ar 14.9041 2.77347 1.01784 0.368812 0.294478 -0.690037 -12.1347 0.613038 0.544519
75 1 Ar 13.7753 2.61773 1.34461 -0.872507 2.58753 1.60634 0.0758486 -1.28802 -3.5385
44 1 Ar 0.186854 2.72484 0.653413 1.44633 -0.554569 0.189993 -44.5574 18.5335 -23.7783
79 1 Ar 15.5295 1.05724 0.719751 0.366377 -0.151097 -0.892526 14.4296 13.0117 -10.0089
82 1 Ar 0.804324 4.30241 16.5688 -2.03583 -2.00914 -0.466615 -30.1518 -42.6732 -38.2808
83 1 Ar 0.736264 3.74984 0.604067 0.0486172 0.247074 -0.0710607 -20.5536 -52.2872 3.79657
88 1 Ar 1.8279 4.15096 0.549301 0.992107 0.432838 -0.912284 -2.95585 7.73105 9.98003
123 1 Ar 0.901778 4.62476 0.960298 1.11442 1.53273 0.435981 -11.8657 30.6989 10.4481
48 1 Ar 1.45533 3.02741 0.47273 -0.276656 0.384801 0.682038 6.0008 -11.3691 -2.11205
87 1 Ar 2.86977 3.70117 0.356098 0.684494 -1.23208 -0.293575 -4.14175 -3.72556 0.964363
91 1 Ar 4.0121 3.65197 0.0856405 -0.0959969 0.168554 -1.37687 -10.8696 -12.0683 22.1234
92 1 Ar 3.57691 4.61741 0.365201 -0.0311543 -0.176476 1.14158 -19.0737 -27.4147 -3.96423
490 1 Ar 4.67969 3.58615 1.22308 0.773522 1.36764 -0.417809 -5.14147 -3.82546 20.644
96 1 Ar 5.04785 3.86091 0.334507 -1.12229 1.29184 1.52705 1.64974 3.90065 -18.0959
493 1 Ar 5.15526 2.54404 1.15907 -1.02444 -0.947481 0.384749 -6.42223 4.74504 6.24699
500 1 Ar 5.77987 3.67116 1.44828 0.823207 0.595947 -0.856755 0.509282 0.517633 -7.46921
97 1 Ar 7.89323 3.35752 16.6495 -0.305882 0.154746 -0.428574 4.67873 -7.38357 8.78482
100 1 Ar 7.58425 4.32809 16.7375 0.170572 -0.252463 0.0804834 -27.5983 9.46722 8.46376
494 1 Ar 5.86328 3.26867 0.395807 1.73877 0.563403 -2.13038 17.4562 -2.96768 13.2877
498 1 Ar 7.19698 3.1048 1.42377 0.02446 1.17043 0.500147 -3.2078 5.09913 -1.88037
98 1 Ar 8.58137 4.42303 16.7181 1.37057 -0.929349 -0.423527 14.5987 -4.81149 15.4083
99 1 Ar 7.97772 3.70244 0.996426 0.582499 -0.38163 1.3677 11.1057 -19.3622 -12.1309
108 1 Ar 10.4357 3.41503 0.998344 -0.705629 -1.54868 2.32953 -5.8984 8.80668 0.496628
112 1 Ar 11.3767 3.96732 0.755839 0.461423 -0.0624581 -1.25535 4.58308 -6.49638 -2.03877
506 1 Ar 11.118 3.58067 1.83484 1.56173 -0.647368 0.537895 -18.0342 -60.6887 15.0473
110 1 Ar 12.1836 3.32216 0.186185 -1.04556 -1.1503 -0.91311 5.98425 12.272 33.9118
111 1 Ar 12.2135 3.78369 2.26732 -1.80306 0.642019 -1.19628 -6.62957 32.5272 18.9704
113 1 Ar 13.0054 4.01949 0.407921 1.39845 1.23956 -0.223784 -0.180376 3.03081 -2.48072
116 1 Ar 12.5476 4.20604 1.36199 -1.26328 -2.58576 -0.410797 -1.8867 12.854 2.35736
115 1 Ar 14.2003 3.74365 0.822069 0.0958593 0.558322 0.146474 -10.4544 -4.76006 2.21582
120 1 Ar 14.9059 4.54508 1.02553 1.52337 0.20272 -1.17886 16.1058 6.68834 -17.0022
514 1 Ar 14.256 4.58299 1.80051 -0.683666 -0.417712 0.898701 -15.5806 -0.0693056 19.561
517 1 Ar 14.8369 3.67917 1.67227 0.276838 -0.707172 -0.0225499 3.2312 -2.14128 8.58103
84 1 Ar 16.1404 4.23346 0.747639 -1.32752 0.251936 -0.606892 0.76977 0.837698 -1.52443
117 1 Ar 15.8391 3.11361 0.522037 -0.369882 0.875398 1.75365 2.9198 8.51677 5.00231
163 1 Ar 0.150358 5.22886 0.481244 -0.287137 -0.109172 1.22716 -2.96433 -4.7335 -1.49708
522 1 Ar 1.10831 5.61445 0.92307 1.13968 0.534328 -0.631438 6.05763 19.8699 8.39072
127 1 Ar 2.42781 5.15122 0.138491 -1.06534 -0.0396577 0.743862 6.83737 -5.51295 6.67833
128 1 Ar 2.10723 5.05045 1.1751 -0.902695 -0.166356 -1.47518 -0.526035 2.90201 -5.1757
132 1 Ar 3.29883 5.54478 0.684721 -0.105916 0.420022 0.37032 -7.33911 16.3678 0.462289
133 1 Ar 4.26795 5.36085 0.351941 -0.605595 0.806146 -0.282046 38.1598 -25.6276 25.4782
526 1 Ar 3.49132 4.97203 1.57928 0.960071 0.915642 0.447058 -24.5533 -2.18281 8.32085
529 1 Ar 4.29032 4.60418 1.14972 0.0322378 -0.420877 -0.67984 -1.32156 -16.2368 -8.52475
569 1 Ar 3.21096 5.95909 1.73841 -0.252905 1.655 -0.220613 -6.57271 -1.15167 -7.02836
134 1 Ar 6.36744 6.18861 0.418571 -2.09799 -0.732395 1.85671 23.8055 -32.9081 -9.25217
136 1 Ar 5.26308 4.65247 0.997164 -0.300971 -1.31884 0.984662 35.3362 0.453511 -9.22428
534 1 Ar 7.12049 5.63099 1.03033 -0.734124 0.12189 0.197445 -16.7736 0.582401 -8.83155
135 1 Ar 7.00467 5.24512 0.030404 1.40824 0.434871 -0.716355 -26.4093 -20.0509 2.75739
140 1 Ar 7.36584 6.18627 0.0981161 -0.0235199 1.29726 1.45528 14.0448 16.0796 -6.84508
537 1 Ar 6.76794 4.07249 1.77844 -0.373638 -0.567981 0.763704 -8.22971 0.544142 -5.09945
540 1 Ar 7.46306 4.56821 0.899531 0.288043 0.129543 0.872839 -0.976599 29.2383 32.402
104 1 Ar 9.76656 4.63897 1.70282 -0.393522 0.468246 0.180385 -7.34697 6.41172 -9.44738
139 1 Ar 8.0309 5.29367 0.277052 0.167816 -0.722971 0.42643 10.2352 6.45018 13.8861
144 1 Ar 9.04037 5.41641 0.721102 -0.319658 -0.670862 1.32345 -4.43658 2.14869 -28.7578
145 1 Ar 9.56822 4.74908 0.0153418 0.861635 -0.478303 0.0756501 4.81009 -0.991109 7.08231
148 1 Ar 10.1519 5.58828 0.44801 0.814408 -0.965796 -0.78312 -2.58849 8.20204 2.23692
147 1 Ar 10.5683 4.60806 0.453005 0.537242 -0.829405 -0.0880594 -0.687027 -2.91436 31.6725
151 1 Ar 11.1821 5.20769 1.10555 -1.39587 0.141256 0.0451473 -6.13687 27.2808 -27.0958
510 1 Ar 11.4345 4.45837 1.68434 0.0666384 -0.702327 -0.979579 34.2918 38.4505 20.8894
546 1 Ar 11.1013 6.67915 1.42816 1.08454 0.0399096 -0.869758 9.77096 -4.51074 7.66199
150 1 Ar 12.8569 5.59794 0.473654 0.469094 0.894816 0.174781 -1.52663 -15.4081 -6.67465
153 1 Ar 12.1316 4.78307 0.477759 -0.372454 -0.013548 1.42245 -6.84767 -6.85106 -9.51049
155 1 Ar 13.5237 4.7931 0.936406 0.260331 0.886741 1.55444 2.49595 2.49771 8.0179
157 1 Ar 15.6792 5.38079 0.910369 0.759568 0.967551 0.301233 -3.17974 -6.04373 -0.51759
159 1 Ar 14.5424 5.56022 1.43807 0.733927 -1.90142 -0.675269 -19.4462 -59.2808 17.6791
124 1 Ar 16.582 5.47384 1.81896 1.34844 0.023414 0.0709909 -12.4814 -16.5397 2.09075
158 1 Ar 16.0155 6.33117 1.22297 0.90172 0.813873 2.15874 -10.5592 -12.2968 -6.94315
162 1 Ar 0.702166 6.77501 0.350304 1.38088 -0.0262696 0.315156 4.3332 1.46559 -5.31891
164 1 Ar 16.5258 7.0515 0.679329 -1.76986 0.104776 0.0283037 8.44261 9.23001 -1.36712
168 1 Ar 1.40987 6.61761 1.12249 -0.272678 1.08442 -0.603543 -14.5312 -5.15812 -11.5668
165 1 Ar 1.26637 5.06557 0.0810745 0.996243 0.990569 -1.07719 41.7568 45.7355 -0.509235
166 1 Ar 1.73641 6.50377 0.0657382 0.228514 -0.0907715 -0.403027 -0.957771 10.7083 7.21656
167 1 Ar 2.44549 6.13904 0.830875 -0.461395 -0.568187 0.434321 -7.84584 3.84567 6.86883
566 1 Ar 2.12398 6.8616 1.76406 -1.55871 -0.564976 -0.0759908 20.9544 9.51246 11.5188
170 1 Ar 4.70364 6.73309 0.726344 0.768367 0.00130602 1.16308 2.08033 -3.1255 22.1696
171 1 Ar 3.50438 6.70422 0.649856 -0.723186 -0.479329 -0.273117 8.83057 -57.308 -53.8706
172 1 Ar 2.34687 7.29053 0.678526 -0.483717 0.42192 -0.00513412 0.994108 -7.64213 0.431182
173 1 Ar 4.16838 5.84905 1.29799 -1.34791 -1.9962 -0.609842 9.80502 3.29326 -0.35908
175 1 Ar 5.97155 6.89084 0.97115 -0.0225678 0.708334 -0.976291 -28.6166 40.8236 2.55368
3736 1 Ar 5.40653 5.94855 0.639731 -0.160889 0.392222 0.020704 -16.4236 -20.8103 -60.8413
177 1 Ar 6.94411 7.12761 0.477729 0.499011 -0.48922 0.815594 -18.9212 0.152461 0.724572
179 1 Ar 7.9722 7.0613 0.354143 -0.504494 -0.751714 -0.198879 23.7676 17.9108 -27.5251
180 1 Ar 7.52958 7.80252 1.03788 0.274656 0.0121439 0.541697 -1.52872 11.7649 -0.505591
538 1 Ar 7.72749 6.51873 1.13648 -1.00386 0.773626 -0.39503 -16.261 -24.4763 26.5084
574 1 Ar 6.69538 7.47469 1.65338 -0.235774 0.975023 -1.0005 -1.25252 -2.07594 -7.13139
184 1 Ar 8.36386 7.29507 1.3685 1.15709 0.98238 -0.692319 38.3285 4.15573 -6.57895
183 1 Ar 9.06506 6.54448 0.931714 -1.19562 0.794105 -0.142065 -21.0367 -31.797 5.31551
185 1 Ar 10.5563 6.99554 0.407753 -0.206024 1.52185 0.704609 -1.48508 -1.90123 -16.3823
542 1 Ar 9.44143 6.80096 1.86708 -0.430039 -0.53302 0.845031 -4.46315 8.98639 16.6315
582 1 Ar 9.34526 7.46702 0.727267 0.093882 -1.00245 -0.90128 10.5009 28.7091 -4.40463
585 1 Ar 10.1285 6.47184 1.18756 -0.143737 -0.581424 -0.383699 -10.9146 -8.35694 -8.30578
152 1 Ar 11.9787 7.2202 1.19226 0.667842 0.966206 -0.0644429 6.67016 1.42605 -6.58855
187 1 Ar 11.5529 7.47523 0.0390198 -1.12493 0.384053 -0.942908 -30.2819 -6.34496 4.68979
189 1 Ar 11.2977 6.35911 16.7735 0.2751 0.865736 -0.757799 -4.57008 5.90986 -11.4937
550 1 Ar 11.9281 5.98159 0.67494 0.24975 -0.147343 -0.314683 -5.33526 0.481196 15.3662
589 1 Ar 11.3082 7.20749 2.6356 -1.3047 -0.00827027 -0.0748089 -7.57213 -2.36897 1.16723
191 1 Ar 12.8464 6.66266 0.41969 0.773345 -0.628534 0.137521 -10.4927 1.76599 -22.873
160 1 Ar 14.8847 6.3817 1.13316 0.349234 0.306103 -0.296323 18.3575 39.102 -38.0851
195 1 Ar 14.7981 7.72767 16.568 -0.683915 -0.125183 -0.435026 -2.70074 5.29238 8.55366
199 1 Ar 15.5072 7.26612 0.958492 -1.05607 0.189497 -0.135448 -2.00683 9.6199 -6.43301
561 1 Ar 0.293613 6.1872 1.29064 0.0794348 1.49131 -0.1716 6.64556 16.4334 -6.73753
201 1 Ar 16.5988 8.16561 0.252659 -0.301482 0.535336 0.400731 2.6498 -5.12926 -0.942502
203 1 Ar 0.296688 7.9164 1.20729 -0.618155 0.159866 -1.20298 -13.2154 -0.603227 1.47115
202 1 Ar 0.759103 8.80489 0.242193 -0.670283 0.7805 -0.402492 -2.41157 -20.6693 -23.2329
208 1 Ar 0.9028 8.8193 1.26745 -0.188601 0.589475 0.398845 -4.37282 -14.1208 7.41548
207 1 Ar 2.20378 8.34268 0.571354 -0.692816 0.564345 -1.31308 0.788229 -18.465 0.662368
206 1 Ar 1.83778 9.26168 0.495707 0.514228 1.53707 -1.05395 -13.0572 26.9068 10.6485
212 1 Ar 2.89674 9.21533 0.736433 0.447251 -0.0711777 0.69247 0.494858 -12.0282 -13.7498
605 1 Ar 1.31021 7.68856 1.28619 -1.22577 -0.220721 -0.671433 14.7418 2.56147 4.86256
211 1 Ar 4.26202 8.08898 1.40334 -0.346745 -0.375757 -0.14185 -13.6341 2.02342 0.685618
210 1 Ar 3.20422 8.08733 0.80141 -0.559221 0.125337 -0.0306432 12.3696 -5.72358 -4.79607
176 1 Ar 5.31787 7.68702 0.688597 -0.422258 -0.356729 0.772583 -21.0461 -4.40067 -2.74985
214 1 Ar 5.67376 8.71872 16.521 0.436526 0.0316717 -0.402621 6.509 -16.0859 26.5424
216 1 Ar 4.3251 8.0361 0.315924 0.679809 -2.20108 -0.741649 -7.59263 -10.0437 7.10267
613 1 Ar 5.17768 7.801 1.79505 1.26167 -1.18362 -0.134819 6.68656 4.32138 -8.57503
174 1 Ar 6.23223 8.10777 0.604684 -0.27678 -0.387704 0.772811 19.3776 -8.30791 -4.72626
178 1 Ar 7.14196 8.22685 0.0981917 0.0515243 -0.476713 0.175034 7.1606 -24.1046 -6.26959
219 1 Ar 7.61024 8.95078 0.636429 -0.657915 -0.742264 -1.39028 18.31 -1.31909 11.8785
614 1 Ar 6.91545 8.57403 1.50203 0.485329 -0.0775209 0.450657 -9.38399 5.41302 -19.3354
182 1 Ar 8.1658 7.95935 16.5213 -0.621456 -0.383308 0.21794 -1.74529 -5.16608 4.49614
221 1 Ar 7.85291 8.8544 16.1403 -0.931678 -0.57947 -0.605674 -9.08707 4.64621 -1.19152
223 1 Ar 8.59953 8.38069 0.961001 -0.0211126 0.368681 -0.0788567 -2.2495 -6.06243 -3.79995
188 1 Ar 10.6169 8.04134 0.149706 1.13562 -0.729836 0.728546 0.386072 13.2056 7.11711
225 1 Ar 9.21155 8.26086 16.7331 0.517648 -0.466433 1.10254 3.81524 11.3024 24.0847
227 1 Ar 10.6705 9.10263 0.511616 -0.881717 -0.775145 0.48295 -4.89577 -8.96326 -10.3396
586 1 Ar 10.6916 7.6772 1.17444 -0.126474 0.344592 -2.19884 4.24075 -0.951568 -6.25794
625 1 Ar 9.72163 8.53526 0.91899 0.618928 0.0799725 -0.637872 2.15366 -8.99576 -3.04534
192 1 Ar 11.7298 8.2999 0.875285 -0.661656 1.10856 -1.40742 2.44881 1.67559 -34.2537
229 1 Ar 11.6644 8.60867 16.6434 1.67567 0.939979 0.416504 -10.5338 3.39159 0.99825
190 1 Ar 12.5237 7.56499 16.7145 -1.60399 -1.4777 -0.861362 30.9345 27.8773 7.2938
196 1 Ar 13.3267 7.92465 1.52373 -0.856124 0.843312 -0.945403 5.28376 -8.55815 -1.35422
194 1 Ar 13.9769 9.07178 16.7466 1.07834 0.534219 0.607654 -23.514 5.58322 3.35166
197 1 Ar 15.528 8.34678 0.543745 -1.44736 0.234407 0.912909 -1.96266 -1.187 -7.36955
235 1 Ar 14.118 8.17467 0.566714 -1.00634 -0.198997 -0.445207 -0.863238 -11.0263 -2.53319
236 1 Ar 14.6635 8.7711 1.18827 1.1862 0.537806 1.41305 12.1655 11.1743 5.60314
637 1 Ar 15.1792 8.31118 2.34849 -1.09728 -0.995976 -0.196483 -8.31042 -23.8817 -13.1708
239 1 Ar 15.9055 8.33523 1.55543 -0.964491 -0.148379 0.718178 5.93204 -1.23971 -1.22088
240 1 Ar 15.473 9.44218 0.758422 1.20577 -1.41847 -0.683019 8.8744 -7.6308 -1.67193
204 1 Ar 16.6545 8.98426 0.897123 -0.858601 1.00675 -0.563274 -8.21028 -2.85771 -10.3991
243 1 Ar 0.778109 9.74328 0.578793 -1.03639 -0.886358 -1.46399 -2.57759 11.6741 24.9347
242 1 Ar 1.14466 11.3088 16.4961 0.651622 0.315501 -0.378977 -5.75786 -12.9318 2.88544
245 1 Ar 1.88757 10.3539 0.542526 0.256335 -0.998559 1.79715 -18.9597 -4.94966 -6.50143
247 1 Ar 2.47123 9.91284 1.34873 -0.519623 -1.23135 0.107595 13.2257 -0.587372 -0.413897
249 1 Ar 2.91825 10.3845 0.470169 0.0822112 -1.71707 -0.140971 1.65276 2.45291 -1.83454
248 1 Ar 2.40576 11.0491 1.12823 0.169309 1.05459 0.114539 -28.1766 -2.95666 10.7592
251 1 Ar 3.93747 8.95322 0.756489 -0.395717 0.964279 -0.385296 -10.2045 -8.23332 -33.3529
612 1 Ar 3.58134 9.90603 1.16801 0.641147 0.694853 -0.302191 8.27893 3.66102 8.03823
653 1 Ar 4.82469 10.3723 0.956567 0.139268 -0.275043 -0.461011 -37.2382 -21.6958 20.0309
253 1 Ar 5.86633 8.78057 1.26898 0.25692 0.93947 -0.195117 -5.31873 6.99309 -25.3098
255 1 Ar 5.71297 9.8487 0.726619 0.606899 -1.72731 -0.424475 8.96886 -10.2746 1.08316
256 1 Ar 5.5861 10.9174 0.697093 0.499651 1.51685 -1.01682 2.82499 25.4866 -18.9154
215 1 Ar 6.61403 9.13969 0.512613 0.790547 0.816072 -0.528995 -15.7301 9.70476 2.2242
220 1 Ar 6.84149 9.81756 1.57435 -0.26399 -0.0749978 0.900708 -2.84006 -0.452226 -1.50058
297 1 Ar 6.50696 10.5386 0.54537 0.0363989 0.496953 -0.219637 -12.3192 -28.4228 -19.8134
218 1 Ar 7.60022 9.99987 0.381744 -0.823141 -0.416679 0.57976 2.6177 5.45395 5.64703
259 1 Ar 8.21332 10.6739 1.12776 0.673166 -1.20141 1.34619 0.37506 -0.289802 7.0692
224 1 Ar 8.38587 9.4767 1.13867 -0.335053 -0.37864 0.488935 -2.33013 1.37725 4.89641
222 1 Ar 8.58223 9.16653 0.167165 -1.57946 -0.354589 0.644647 -18.5632 -30.3362 -16.1637
228 1 Ar 9.90378 9.47397 1.34174 0.231925 -1.74145 1.54841 -3.24655 7.83622 0.86636
265 1 Ar 9.70197 10.4512 0.376101 -0.926539 -1.38944 0.583274 13.3033 13.4084 3.10208
226 1 Ar 10.8015 9.82952 16.5025 -0.7368 -1.27138 -1.73365 -8.67553 4.34294 5.22125
232 1 Ar 11.7342 9.6539 0.423206 0.723736 0.116778 0.209951 -0.924777 -7.22137 -22.6566
267 1 Ar 10.9579 9.83726 1.17636 -0.776958 0.414941 0.114002 -3.5347 12.0549 10.6463
269 1 Ar 11.4733 10.5811 0.0505057 -0.0490025 -1.13364 0.25741 2.34106 16.9175 -2.63237
272 1 Ar 11.9137 10.5385 1.11993 0.109583 -0.226049 -0.0770639 -4.49851 -16.5444 -16.4136
231 1 Ar 13.211 8.79605 0.822754 -0.92489 0.754126 0.49018 4.19511 -0.439522 0.217744
271 1 Ar 12.8002 9.98213 1.8448 0.309771 -1.05299 -0.675039 -13.6285 12.9894 21.4808
273 1 Ar 13.513 10.1373 0.0939985 0.322994 1.02203 0.88986 0.371718 -5.5834 8.83602
234 1 Ar 14.5024 9.84929 0.421424 -1.2278 0.989727 -1.43884 2.22697 -1.09723 4.68882
275 1 Ar 15.3405 10.4943 0.635666 -0.769565 0.146061 -0.775092 -1.0211 18.4547 20.6733
241 1 Ar 0.29007 9.85328 16.4921 -0.192657 -0.881241 -0.554854 -29.2167 -3.96377 -12.7114
279 1 Ar 16.361 10.1251 0.604302 -0.643092 -0.657387 -0.240695 2.65912 -5.67457 -3.66974
244 1 Ar 0.361208 10.7668 0.239588 0.657399 0.298951 -1.36014 5.46237 -7.11513 -3.39562
283 1 Ar 1.54245 11.5436 0.802271 0.720972 -0.0410483 0.157066 -13.6369 -1.89507 -10.8439
285 1 Ar 2.30298 11.2387 0.00524255 -0.416661 0.317876 -0.304118 1.9305 1.41036 -2.94743
287 1 Ar 3.28131 11.4107 0.834264 1.30616 -0.143808 -0.221578 8.29679 4.58605 -23.2207
252 1 Ar 3.17451 10.7835 1.73856 0.31828 0.976682 -0.441941 16.936 -23.8141 2.03426
250 1 Ar 4.89906 10.5213 16.5618 -0.234751 -0.208196 0.426897 -11.6277 5.56718 35.2577
291 1 Ar 4.60165 11.2443 0.387945 0.0830785 -0.4965 -1.18407 23.6733 56.941 16.2164
649 1 Ar 3.90736 10.587 0.348362 0.0833879 -0.749216 0.602724 -12.8951 -7.84946 15.1369
650 1 Ar 5.31582 11.5809 1.61494 1.4462 -0.294323 0.258922 5.0283 -25.6837 5.25891
689 1 Ar 4.12506 11.598 1.35854 0.462413 -0.927132 1.02602 17.9594 -2.70136 16.2729
654 1 Ar 6.28715 11.5063 1.167 -0.580355 -0.098606 0.336039 7.272 2.90845 8.55818
693 1 Ar 5.42541 12.0051 0.655692 -0.275172 0.0866496 -0.890298 -8.97249 -3.08031 -24.2552
295 1 Ar 6.98194 12.479 1.49251 0.904466 0.609275 0.436066 1.86077 -4.7055 -0.844353
258 1 Ar 6.61522 12.009 0.323507 -0.744906 0.119842 0.0371661 21.8649 6.62601 5.74962
264 1 Ar 6.84192 11.005 1.91346 -0.29899 -0.323228 -0.0732413 -13.8287 -14.6608 -12.0598
301 1 Ar 7.25617 11.0229 0.907221 -0.659344 -1.00406 0.654888 31.5196 26.7961 35.9029
662 1 Ar 9.08051 11.4867 1.16765 0.263145 0.504089 -0.0214774 6.78639 -16.4221 -1.76599
263 1 Ar 8.70717 10.1579 0.296768 0.0520745 1.26736 -0.310737 -0.00352371 10.8748 4.78229
268 1 Ar 10.1854 11.6142 1.33511 1.59028 -0.956139 -0.345899 0.610561 16.5295 17.9315
266 1 Ar 9.93652 11.5811 0.329762 0.173522 1.18206 0.813488 -5.15742 -0.717549 -10.2066
309 1 Ar 11.8377 11.6029 1.12354 -0.950933 -1.89429 -0.213227 -4.38346 5.8487 18.8967
666 1 Ar 10.7344 10.8597 0.878519 -0.180624 -0.359407 -0.448989 7.73542 -3.65143 -7.70732
270 1 Ar 12.5477 10.8991 0.235754 1.45184 0.722355 -0.59727 3.81448 -1.9548 -0.344436
311 1 Ar 13.2132 10.7375 1.15066 -0.0588675 0.21822 0.906352 -9.8719 -6.514 -2.78035
310 1 Ar 12.9404 12.1069 0.582672 0.219527 0.280749 -0.992671 -15.266 11.1411 -2.8814
276 1 Ar 14.2865 10.703 1.11538 -1.90382 -0.263432 -0.547909 -5.12223 -14.8642 -18.261
313 1 Ar 13.7435 11.487 0.638109 -0.281382 0.618587 -0.177226 20.2503 -2.64928 -18.8229
315 1 Ar 14.5947 11.5977 1.47406 -0.18509 -0.605389 -0.0542938 14.3923 9.92452 9.27695
319 1 Ar 16.2183 11.2909 0.446817 -0.316811 0.296801 -0.237903 28.0678 -3.8818 30.0248
284 1 Ar 0.397502 11.6814 0.700189 -0.269412 0.73252 1.33016 -7.76199 17.4823 -8.3063
282 1 Ar 1.00698 12.2996 0.0821748 1.23841 0.353376 0.48214 -4.23789 1.40106 -0.81592
323 1 Ar 0.200388 12.3161 1.88309 0.208088 0.111923 0.750819 12.2441 0.432678 5.22911
286 1 Ar 2.97539 12.4006 16.1142 0.114503 -0.317209 0.505965 1.5153 1.31809 -1.40062
288 1 Ar 1.8193 12.9451 16.719 -0.718908 -1.38208 0.0404892 10.2379 1.95563 -1.97969
327 1 Ar 3.4074 12.8164 0.206233 1.42575 -0.593283 0.362203 -4.39666 6.77423 5.24793
686 1 Ar 2.41736 12.1574 0.902883 -0.269284 1.19437 0.0515523 2.37565 -10.8455 1.88533
292 1 Ar 3.65035 11.7341 16.6698 -0.137386 -0.814809 0.288604 0.221835 3.68692 4.13179
729 1 Ar 4.08043 13.2743 1.02818 1.70261 0.435931 -1.13867 -15.1688 -8.35633 -15.2936
331 1 Ar 4.26606 12.3123 0.568428 -0.573627 0.835645 1.43088 9.59579 -0.202566 3.25764
296 1 Ar 6.28757 13.2096 16.097 -0.416228 -1.37119 -0.489806 3.88305 35.4297 25.1195
335 1 Ar 5.56052 13.944 0.10402 0.732597 1.51601 0.170723 9.88974 -12.7077 -4.21209
694 1 Ar 6.08966 12.9056 0.507048 1.38868 0.0734191 0.660163 0.474387 16.1919 -13.7014
733 1 Ar 5.10821 13.0672 0.957954 -0.698706 -0.413321 -1.52748 4.36145 4.1115 -2.84124
300 1 Ar 7.06264 13.3833 0.326309 1.18418 0.0530105 -1.48406 0.508876 -2.80532 -0.935628
737 1 Ar 7.08314 14.132 1.98573 -0.154676 -0.554867 0.889167 16.2558 23.1067 -12.3683
262 1 Ar 7.70665 12.1731 0.579778 -1.85008 0.684608 1.22215 -2.53237 -1.40137 -0.662821
339 1 Ar 7.60228 13.3764 1.25224 -1.45936 0.747755 -0.00248847 -8.6069 5.24606 3.26749
341 1 Ar 7.66665 12.8073 16.4025 2.84192 -0.585232 0.119821 0.166904 2.88188 2.335
302 1 Ar 8.45384 13.0355 0.700144 0.266233 0.7748 0.463016 -1.31192 -21.3611 -29.9933
702 1 Ar 9.30175 12.528 1.33984 -0.749041 1.14863 -1.53599 -4.93066 14.3697 -38.9647
305 1 Ar 9.80083 12.6703 0.0134497 -0.596317 0.745477 0.243566 24.8239 -20.688 32.1039
308 1 Ar 10.3927 12.968 1.12118 -0.749003 -0.442987 -0.348045 -22.6268 1.19659 -5.01481
345 1 Ar 10.2726 13.8665 0.492535 -2.18803 -0.127737 -1.5707 17.9102 6.79851 -12.5903
745 1 Ar 9.86509 13.6163 2.05206 -1.54206 -0.90143 -0.72067 2.39146 1.28283 -13.3392
306 1 Ar 11.0185 12.2267 0.515495 -0.441841 0.12071 -1.37801 -11.119 -3.36363 2.10017
312 1 Ar 11.9875 12.732 0.8139 -0.140779 1.01713 -1.02907 -7.51804 9.22421 -17.1628
347 1 Ar 11.2828 13.5156 1.22821 0.0908212 -1.51434 -0.809818 8.22579 -9.20199 -17.3313
352 1 Ar 12.2742 14.0608 1.20432 -0.0754457 -0.589664 0.441507 -12.6719 2.95628 16.1418
351 1 Ar 13.0354 13.1513 1.2219 0.575652 0.354826 -0.186302 -13.1168 -8.84083 -3.10917
317 1 Ar 14.662 11.9456 16.6823 0.979943 0.36468 0.29649 -1.01512 -5.04088 13.3791
316 1 Ar 13.547 11.7311 1.63322 1.02841 1.2322 -1.6487 2.8851 22.4768 -14.4214
320 1 Ar 14.9192 13.3937 1.49003 0.261589 -0.069006 -0.439568 -27.4655 -21.4494 -39.6995
355 1 Ar 13.5735 13.9525 1.43767 0.890024 -0.448965 1.3037 5.69741 6.04069 -25.8307
356 1 Ar 13.7267 13.1137 0.44315 -0.800061 -1.03357 1.01262 -1.58392 7.98825 -12.3933
321 1 Ar 16.7254 12.7216 0.946674 0.0832744 0.296083 -0.0172955 2.1991 -5.64641 -10.3613
357 1 Ar 14.8622 13.1549 0.395078 -0.0155776 -0.329278 -0.355127 -6.12807 26.006 -27.5924
318 1 Ar 15.4138 12.4527 0.796603 -0.0243258 0.0506987 -0.59256 1.6387 -36.31 25.0578
359 1 Ar 15.8518 13.3678 0.982101 0.115103 -0.352902 0.625107 4.28836 19.9135 -12.596
322 1 Ar 0.303006 14.236 0.110667 0.681796 -1.24511 -0.652623 -3.27594 3.82332 44.5382
328 1 Ar 1.47665 13.5641 0.838042 -0.3953 0.365124 -1.32887 -11.1166 1.92006 3.69849
722 1 Ar 0.744181 14.4957 1.32351 -0.0151423 -1.06376 0.373521 -6.61298 -11.5974 0.0513825
326 1 Ar 2.35978 14.2346 16.4349 -1.05232 -0.866434 0.346653 28.9502 -12.6892 37.1436
365 1 Ar 1.55338 14.5402 0.437736 -0.141372 0.197504 -0.430902 -7.21407 -2.59356 -18.4364
726 1 Ar 2.38713 14.4658 1.10805 0.762355 -1.45244 0.663143 -4.93162 4.35602 -3.09596
332 1 Ar 3.3347 14.1555 0.269657 -0.514959 0.835459 0.859699 0.745866 1.86735 -4.02998
336 1 Ar 4.40806 15.3238 0.346798 -0.373207 -0.190267 0.441534 -1.47849 -0.829329 20.9999
730 1 Ar 4.40176 14.3145 1.16821 1.53617 -0.799777 2.08257 -1.25481 2.48868 -2.33897
334 1 Ar 6.2859 15.1889 0.393812 1.25834 -0.106929 0.808476 -17.4678 30.2758 22.6358
736 1 Ar 5.41896 14.771 1.05353 0.811011 -0.43312 0.604392 -12.6977 19.0319 -0.948249
740 1 Ar 6.00691 13.9478 1.0319 0.680198 0.621278 0.62316 15.7755 -10.4941 4.87432
338 1 Ar 7.31427 14.4598 0.917477 0.707663 0.980349 1.93601 -2.43873 -12.0147 -4.0902
340 1 Ar 6.37239 14.9667 1.63977 0.236817 0.769317 0.90895 4.96424 -4.00258 -7.56889
379 1 Ar 7.40177 15.0489 16.4604 0.11995 0.691671 0.5728 7.86363 12.064 10.4233
343 1 Ar 9.4356 13.4904 0.857537 -1.15408 -0.220532 -0.524561 -5.29209 -24.8854 52.8871
344 1 Ar 8.35677 15.069 0.67352 -0.317814 1.21049 -0.723128 -2.99273 11.4615 -9.6189
3944 1 Ar 8.00638 14.1762 16.7299 0.766219 -0.561084 0.260699 5.06908 2.18909 1.21836
342 1 Ar 9.44766 14.8115 0.563647 -1.48041 0.553177 -0.65377 -0.30541 -0.788438 0.22092
348 1 Ar 10.1699 14.4483 1.37304 0.117799 0.42782 0.196237 0.166924 7.603 5.10584
385 1 Ar 10.547 14.9404 0.439919 0.663423 -0.280027 0.37366 -19.5616 -14.2685 13.8155
346 1 Ar 11.299 14.1377 0.337948 1.03283 -0.614926 0.879758 -0.0589703 9.72504 4.59905
387 1 Ar 12.392 15.109 1.43174 0.956066 0.851715 0.466196 -14.4775 -24.3927 -2.10039
389 1 Ar 12.3376 14.6971 0.169117 0.388217 0.131609 0.37382 -19.6954 -3.60067 -4.62863
391 1 Ar 13.1767 14.6805 0.73646 0.200523 1.52148 0.329474 9.73453 1.162 16.4266
789 1 Ar 13.2759 14.8458 1.96823 -0.423816 -0.577575 -1.12514 -1.2824 -9.40547 6.99546
793 1 Ar 14.2411 14.7229 1.53387 -0.842774 -0.644865 0.993462 -16.836 11.1063 -4.45536
393 1 Ar 14.1177 15.0821 0.446023 -0.0151234 -0.75865 1.51131 3.7378 5.68377 -6.34975
360 1 Ar 14.4001 14.0582 0.676756 -0.0893416 0.418482 -0.888431 -17.8882 -2.44361 32.7782
395 1 Ar 15.0026 15.4104 1.44851 1.08563 0.821132 1.16266 14.479 16.9023 -6.45341
324 1 Ar 0.174348 13.5166 1.63618 -1.6297 0.657912 -0.249218 -4.25756 30.2009 -13.9629
358 1 Ar 15.8239 13.6249 16.3988 -0.229085 0.0824983 0.117665 -13.1404 9.68711 22.4187
758 1 Ar 16.4995 14.3768 1.02903 -0.290679 -0.306786 -0.905331 -7.44299 -3.14188 2.50247
3 1 Ar 0.0200548 16.5216 0.90432 -2.18639 -1.12677 -0.514896 -2.8682 -4.1625 -1.25655
363 1 Ar 1.24643 16.1809 0.676168 -0.442445 0.0536241 0.321463 8.15141 6.53647 -0.0912286
761 1 Ar 0.738194 16.0468 1.60459 0.301081 0.949883 0.383506 6.13022 0.316302 -18.4285
367 1 Ar 2.17375 15.3817 0.0794288 1.01452 -1.05041 1.08974 -5.96534 -1.83436 3.76529
372 1 Ar 3.38109 16.3772 16.5065 -0.531666 -0.888585 -0.15552 10.6015 3.98595 1.2754
765 1 Ar 1.51312 15.1771 1.24604 1.1703 -0.343933 0.123495 6.83596 7.94445 -3.16323
762 1 Ar 2.41664 16.3121 0.582989 0.793934 -1.79376 0.498613 1.68195 6.86173 -0.0472284
766 1 Ar 2.63691 15.5252 1.32732 0.593579 0.983195 0.504471 -4.12754 -2.4204 -0.85117
371 1 Ar 3.32105 15.3995 0.165575 -1.91211 -0.346441 -0.306642 -0.942401 -0.531382 14.621
370 1 Ar 4.58448 16.5027 0.334476 -1.08941 -1.6095 0.0607972 -22.2343 -8.67307 -0.885329
773 1 Ar 4.58525 15.7448 1.34272 -0.515894 0.88444 -0.20016 0.834962 -2.76059 -4.93769
770 1 Ar 3.55165 16.2483 1.21903 0.0321274 0.915328 0.120084 -2.62552 -12.8056 -5.82309
373 1 Ar 5.33055 15.85 0.359531 0.178786 0.0166255 -0.490491 32.6985 -22.4933 15.3088
375 1 Ar 6.34564 16.3997 0.795252 0.732074 -0.55039 0.547368 -2.79356 -8.74317 -3.44921
374 1 Ar 5.53113 0.105484 0.198062 0.156993 0.810994 -1.02388 18.0627 7.05003 -10.604