ITEM: TIMESTEP
1800
ITEM: NUMBER OF ATOMS
4000
ITEM: BOX BOUNDS pp pp pp
0.0000000000000000e+00 1.6795961913825074e+01
0.0000000000000000e+00 1.6795961913825074e+01
0.0000000000000000e+00 1.6795961913825074e+01
ITEM: ATOMS id type element x y z vx vy vz fx fy fz
4 1 Ar 0.156298 0.774322 0.840957 -0.505404 -0.493106 0.903957 7.88592 27.7814 -27.9146
8 1 Ar 1.53395 0.829932 0.832181 0.745928 0.817736 -1.88947 -5.3449 1.45828 15.7318
368 1 Ar 1.83477 16.37 0.226336 -0.535361 -1.39826 0.0217397 -23.612 19.4397 15.1738
401 1 Ar 0.222451 0.217519 1.65495 -0.0904252 -0.268667 0.148118 -6.93717 -25.6461 21.9453
6 1 Ar 3.60115 1.1394 0.67228 0.634377 1.626 0.623254 -3.31286 15.4639 10.6909
7 1 Ar 2.66534 0.254651 0.63096 0.113834 -0.992131 0.0852238 -13.2128 -2.05383 13.5977
412 1 Ar 3.03554 0.817227 1.5822 0.165818 1.42374 -1.03487 17.3938 -15.8883 -34.6671
409 1 Ar 4.01476 0.118348 0.910868 1.37151 -1.31508 0.737025 -6.63425 8.06369 5.10638
410 1 Ar 4.61565 0.993556 0.965548 -0.134265 -0.737387 -0.653408 11.6879 7.96232 18.27
14 1 Ar 5.68297 0.953952 15.5589 -0.256257 1.01176 -0.862686 50.4116 -5.7992 25.6305
15 1 Ar 5.69276 0.417821 1.11814 -0.00698289 -0.0989334 -0.700696 -8.57634 -10.7912 2.47376
16 1 Ar 4.75994 0.454725 0.088865 0.134493 -1.43052 -0.494866 1.63643 -15.0272 -9.34449
20 1 Ar 7.25044 16.7251 15.8121 0.527452 0.0397151 -1.77894 -25.9988 -39.5129 -21.5547
457 1 Ar 6.64654 0.53984 0.600389 -0.124487 0.193279 0.530409 0.840691 -10.5716 2.2118
24 1 Ar 9.57364 0.193698 1.16397 -0.119751 2.05549 -0.0396053 -14.9729 6.98175 -9.03598
59 1 Ar 7.44638 0.501539 16.5869 1.03384 -0.714043 0.305312 6.77737 29.1725 19.8679
418 1 Ar 8.43311 0.278744 2.01328 0.0491612 -1.84298 1.001 2.58582 5.59051 -10.1923
461 1 Ar 10.1706 1.5701 1.10259 -1.19562 -1.18827 0.678682 -1.21748 19.75 19.8253
25 1 Ar 10.1691 16.6527 0.322748 0.461264 0.280699 0.587118 18.6504 8.72182 10.6711
28 1 Ar 10.515 0.579759 1.10823 3.02671 -0.965468 -0.898758 15.034 -2.66807 -8.74872
64 1 Ar 8.73569 1.148 1.11639 0.936156 -0.995021 0.38899 3.11342 0.871163 1.41889
63 1 Ar 10.1183 16.4789 2.01769 -1.1937 1.16824 -0.49863 15.2907 2.68679 -0.933181
27 1 Ar 11.838 0.887104 1.476 0.195999 0.18178 0.647631 -9.47584 0.509402 -20.2608
32 1 Ar 12.6315 1.50199 1.01578 -1.35392 -0.016789 -0.625037 3.07463 1.22675 16.8406
36 1 Ar 14.1453 2.15149 1.02822 0.896537 -1.22767 0.872625 -24.9884 -14.2634 -5.32326
433 1 Ar 13.5237 16.4126 1.83128 -0.187168 -0.310258 0.371208 10.4011 -8.11049 -14.1399
34 1 Ar 14.7705 1.66146 0.294594 0.455368 -0.688529 0.810172 2.5627 -3.70208 -2.13859
35 1 Ar 14.3932 16.6818 1.15863 -0.579652 0.794862 -0.769179 -28.288 -11.7739 9.60591
40 1 Ar 14.8372 0.492734 0.495447 0.0647535 0.850163 0.242313 17.7953 11.3062 -5.85153
438 1 Ar 15.3819 16.6949 1.39632 -0.727119 -0.309639 0.736029 11.8347 -0.54492 -7.60174
43 1 Ar 0.185175 1.57291 0.0591617 0.676392 -0.368731 0.0466065 55.0486 24.1233 28.9922
445 1 Ar 1.55635 1.88226 1.4847 -0.535039 -0.28513 -0.167139 51.8137 -17.3001 23.8518
47 1 Ar 1.29744 1.72102 0.30774 -0.777176 -0.10097 -1.10323 -1.62222 15.551 -3.01845
446 1 Ar 3.05222 2.26023 0.758855 0.652915 0.347487 0.41924 6.28401 0.188265 12.6399
50 1 Ar 4.21053 2.04684 0.929652 -0.255532 0.29301 1.13367 -8.87482 6.5277 -16.8962
51 1 Ar 4.35267 2.9898 1.53842 0.763963 -0.711248 0.201549 -4.43627 -1.3146 5.0854
52 1 Ar 4.1394 2.03381 15.8699 0.115446 -1.19883 -0.43183 -18.3747 -4.87375 17.9471
449 1 Ar 2.46333 1.35741 0.792803 -0.83021 1.36826 -1.0358 2.56041 3.64796 4.74636
12 1 Ar 4.50361 1.49589 16.8313 -0.569606 -0.985562 1.75497 -2.1277 8.59305 -12.1846
53 1 Ar 5.83724 1.44245 1.16186 0.980871 0.499332 -0.687823 4.6713 6.3289 6.31859
56 1 Ar 6.0363 2.09629 16.3564 -0.355157 -1.18881 -1.48219 10.9644 6.41794 -5.83071
55 1 Ar 6.82762 1.53234 0.323639 1.19373 0.91366 -0.766967 -2.55497 5.8732 2.72191
60 1 Ar 7.18567 2.52685 0.720619 0.108174 -1.42655 -1.5784 29.282 -24.8215 26.0035
95 1 Ar 6.26595 2.4885 1.20419 -0.534771 -0.515751 1.19244 3.08428 -7.61973 -5.86916
101 1 Ar 8.99068 2.95305 0.292087 0.981528 0.232847 -0.0718901 5.40779 -0.692529 -9.33308
462 1 Ar 9.24347 1.88849 0.228325 -0.384608 1.59717 1.58311 -4.21976 1.00887 4.87545
68 1 Ar 9.80373 0.956182 0.396456 -0.199823 -1.5964 1.29745 -13.3285 -16.3817 -19.8504
103 1 Ar 10.115 2.67725 0.664776 -0.00494957 -0.10391 1.46292 -3.70673 -2.89067 11.0873
107 1 Ar 11.0593 2.15536 1.00891 0.1818 0.338449 0.474793 7.48425 3.83439 -4.30264
67 1 Ar 12.0791 2.32749 1.5933 1.19497 0.00513386 0.82198 -0.511828 -5.19635 -6.11586
72 1 Ar 11.5245 3.22143 1.26476 -0.410945 1.27375 0.533871 -0.468333 -0.251331 -2.4038
71 1 Ar 13.4267 1.70285 1.69426 0.555458 -0.322823 0.480704 5.11493 -8.2167 -15.6064
70 1 Ar 12.4994 3.10119 16.2152 -1.02667 -1.00949 0.915162 -6.89041 4.16807 4.05967
73 1 Ar 13.1367 2.46756 0.879772 -1.76898 1.08977 0.229057 -7.97022 9.03157 2.31463
76 1 Ar 12.8149 3.11677 1.68879 1.26549 0.0399481 -0.981243 -14.3806 13.2242 -17.5716
74 1 Ar 15.063 2.50916 0.99505 -0.109381 -0.416773 0.279019 22.4215 34.5518 -10.4006
75 1 Ar 13.9841 3.30359 1.1917 1.82404 -0.623785 -0.580197 3.19249 -8.38473 12.1048
44 1 Ar 16.7635 2.5761 0.651385 0.467076 -0.817849 -0.608995 4.52377 -32.1522 -12.8618
79 1 Ar 15.9057 0.818392 0.881328 -0.853448 -0.274934 -1.04687 -11.9717 -0.850588 0.0718063
82 1 Ar 0.706504 4.33084 16.5134 0.536376 -1.53042 1.08443 -0.803607 3.42934 -6.45636
83 1 Ar 0.477792 3.39753 0.218113 0.0429664 -1.30441 -1.24742 16.5886 6.35075 12.0843
88 1 Ar 1.81273 4.15307 0.0602391 0.714062 1.54316 -0.323864 -13.9771 -3.13982 12.1664
123 1 Ar 1.13077 4.78633 0.578802 0.20406 0.333057 -0.0429818 -14.1917 -9.21587 17.8707
48 1 Ar 1.78608 2.98264 0.197973 -1.76731 -0.655997 1.26659 -17.1227 -9.95987 40.758
87 1 Ar 2.89149 3.38926 0.0825997 1.40725 0.130455 -2.10259 6.99759 -7.53021 11.9367
91 1 Ar 3.78523 2.59992 0.0292069 0.677859 -1.20305 0.274803 12.1728 -1.19697 8.47576
92 1 Ar 3.57384 4.2587 0.164488 -0.370189 -0.322235 0.13434 -10.3009 1.68254 -12.846
490 1 Ar 4.77545 3.07784 0.503309 0.600232 -1.25241 -0.469383 -9.05867 0.691492 9.30417
96 1 Ar 5.4628 3.50386 16.4493 -3.05608 -0.18741 -0.857502 -12.0004 -4.31197 20.8359
493 1 Ar 5.42846 2.06408 0.423352 0.161151 -0.647178 -0.945118 -6.20397 5.17773 8.77329
500 1 Ar 5.79794 3.34992 0.665453 0.160884 0.457587 2.30809 32.3704 -24.0859 7.64708
97 1 Ar 7.85993 3.24693 16.4211 -0.597029 -0.729515 -0.932984 -6.32537 -6.50384 9.20638
100 1 Ar 7.10057 4.35475 16.7494 -0.884076 -1.62023 -1.44923 38.7267 11.0652 -29.919
494 1 Ar 6.60283 2.94201 0.0621228 -1.1336 -0.102132 -0.34991 -37.1276 6.66243 -39.0813
498 1 Ar 6.89483 2.68355 2.03908 0.151877 0.072995 -0.00884368 8.26122 -1.63162 2.89098
98 1 Ar 8.50544 4.10678 0.203352 -0.494166 -1.51844 -0.759413 -16.9488 -22.1514 -0.865617
99 1 Ar 8.28641 3.2979 0.96689 -0.0546886 -1.11513 0.305992 -11.2562 2.46262 9.22702
108 1 Ar 10.6061 3.6875 0.718389 -2.55642 2.01107 1.18588 -13.756 -10.1715 9.40984
112 1 Ar 11.5163 4.17223 0.620695 -0.281589 -0.429055 -0.294339 24.413 -5.67961 0.346951
506 1 Ar 11.0433 4.09411 1.7931 1.42247 -0.29986 -0.625448 1.46997 8.54287 -11.5574
110 1 Ar 12.3769 3.35461 0.464383 -0.0226609 -0.445371 -1.45497 -5.64101 -5.33683 4.28077
111 1 Ar 12.7054 3.39702 2.82311 -0.126298 0.704365 0.0388754 0.139693 6.16789 -17.3464
113 1 Ar 12.445 4.35071 0.089066 0.307261 1.23205 -0.483919 -1.72372 9.58351 4.87619
116 1 Ar 12.2651 4.03467 1.69418 0.742216 0.084223 -2.11751 -0.264083 -10.1371 -25.4007
115 1 Ar 13.9825 3.87814 0.318479 -0.0316726 -0.412307 -1.25526 5.52645 21.8867 8.07752
120 1 Ar 15.9028 4.20104 1.17054 0.118009 -0.498921 1.85858 -7.6132 -18.7177 -5.50008
514 1 Ar 14.5215 4.39829 1.50715 0.368475 -0.373178 -0.586737 -13.7338 -12.0195 -12.994
517 1 Ar 15.0963 3.57101 1.82211 -0.190186 0.727468 1.0808 1.24586 -10.0231 6.47048
84 1 Ar 16.766 4.49456 0.634621 -0.0493491 0.418428 -1.17128 10.8255 -9.029 -11.0272
117 1 Ar 16.0038 3.28993 0.673446 -0.764817 0.482826 -1.04084 7.12299 -8.71142 -16.4837
163 1 Ar 0.549787 5.36541 1.26583 -2.06152 0.902582 0.0376655 -21.702 -7.93052 -1.41049
522 1 Ar 1.05344 6.05699 0.603345 -0.335391 0.558187 -1.39437 26.4463 -31.4054 -18.2723
127 1 Ar 2.6899 5.14139 16.4997 -0.742491 -0.765805 0.302832 -5.01241 2.43224 -1.37392
128 1 Ar 2.09859 5.1978 0.880567 -0.34625 1.66014 1.16326 17.6422 -16.8007 25.6133
132 1 Ar 2.99203 6.13386 0.146406 -1.28926 0.640312 -0.449887 11.947 -13.928 -18.9934
133 1 Ar 4.68792 5.18762 0.196353 -1.02994 -1.19172 -0.370674 0.718261 -9.15874 -1.43439
526 1 Ar 3.32246 5.16884 0.637386 0.726143 -0.863637 -1.29216 -10.6348 -13.057 4.59152
529 1 Ar 4.15233 4.01196 0.946002 -0.176496 -0.589779 0.973176 10.4005 -5.41539 20.8313
569 1 Ar 3.09214 6.06248 1.13838 1.05915 1.70842 -0.944533 -6.56923 15.6524 6.07059
134 1 Ar 6.04992 6.04676 0.0148445 -0.134537 -0.397709 -0.900247 1.58543 10.8097 13.0606
136 1 Ar 5.16758 4.09015 0.600971 0.151806 0.99694 -0.64639 -23.9658 25.9109 7.49552
534 1 Ar 6.71556 5.38278 0.5069 0.294852 0.409438 -0.555292 0.655696 1.98583 42.0328
135 1 Ar 6.60335 5.21568 16.3443 0.380884 -0.173909 -0.784446 -6.85637 -25.5934 -19.5411
140 1 Ar 7.28479 5.98867 16.6327 0.0303803 -0.294307 0.244682 -1.57535 18.7424 -3.72859
537 1 Ar 6.79482 3.62883 1.51596 -0.213225 -0.0163964 0.459685 -5.46517 2.51285 9.23612
540 1 Ar 7.49526 4.45501 1.21814 0.452513 1.23222 0.0176477 1.17197 1.36863 -3.17335
104 1 Ar 10.1138 4.64533 2.1241 -0.319994 0.501952 -0.637507 3.90051 -3.62094 9.37038
139 1 Ar 7.74829 5.22104 0.420175 0.858739 1.29464 0.655809 14.6235 -6.599 6.93765
144 1 Ar 8.92677 4.97825 0.449273 0.0389119 -0.141327 -0.508164 11.1054 29.5738 4.67273
145 1 Ar 9.82186 5.28869 16.4647 -0.521358 -0.368002 0.70119 -0.954302 -1.28921 13.9664
148 1 Ar 9.28147 6.08081 0.354194 -0.157362 1.28946 0.076675 7.22765 3.05939 -11.9708
147 1 Ar 9.8663 4.53961 1.05146 -0.0299354 -1.56651 0.128844 -6.6016 -3.91787 8.4117
151 1 Ar 10.4135 5.92413 0.683659 0.235984 0.127857 0.716727 -13.8049 -3.30631 -14.6464
510 1 Ar 10.847 4.86694 0.95615 0.113524 0.18725 -0.358303 -5.0944 8.8442 -5.0696
546 1 Ar 11.1806 6.41912 1.17423 -0.116202 1.85402 0.599728 -9.18927 27.6047 -6.38395
150 1 Ar 12.7892 5.34448 16.5533 -0.448305 -0.815325 -0.409516 -9.06485 -17.8885 3.28434
153 1 Ar 11.6832 5.43936 0.483237 -0.45806 0.73898 -0.265086 10.1929 -1.10429 8.2845
155 1 Ar 13.4764 4.9711 0.561959 0.766374 0.0686165 0.797293 14.0841 -16.0989 6.72222
157 1 Ar 16.2718 5.40461 0.653483 -0.187429 0.0128382 0.323666 11.333 6.6686 1.89466
159 1 Ar 14.6963 4.76781 0.418893 -1.08875 0.718253 -0.294565 -20.6186 -6.40057 15.4656
124 1 Ar 16.3095 4.97431 1.66943 0.358039 0.967061 0.941216 8.79867 20.6071 12.6979
158 1 Ar 16.0104 6.12295 1.38781 -0.992867 -1.05102 -0.600837 3.60002 -3.64217 -6.57189
162 1 Ar 1.3355 7.02755 0.258176 -0.748336 -1.03869 -1.61809 16.0964 -15.9449 2.30086
164 1 Ar 16.3144 7.20873 0.828674 -0.0978173 0.566849 0.464374 12.3801 -7.74639 -9.8668
168 1 Ar 1.34777 6.63411 1.52193 1.32098 -1.09001 0.352048 2.53618 18.5715 -2.13937
165 1 Ar 1.68987 5.38974 16.7899 -0.674116 0.0282978 0.149771 -3.33199 24.9935 -19.4857
166 1 Ar 2.2048 6.66515 16.5444 0.389589 -0.138867 -0.273304 -3.10013 14.3733 -32.1909
167 1 Ar 2.0425 6.19137 0.613333 -0.491354 -0.158656 -1.10246 15.1069 11.0374 28.1903
566 1 Ar 2.47404 6.767 1.61363 0.0389255 -1.30709 -0.676369 -13.7738 8.26341 -4.02194
170 1 Ar 4.54549 7.08545 0.954944 -0.079726 -0.326406 -0.352727 -32.0099 -15.4465 17.5683
171 1 Ar 3.36893 7.10119 0.324851 -0.066348 0.610257 0.546899 2.64141 2.05216 -10.5623
172 1 Ar 2.30798 7.46554 0.732322 -0.426713 0.526187 -0.100107 -17.4064 -13.7756 -0.427514
173 1 Ar 4.03204 5.91033 0.648501 -0.759549 0.275525 -0.0619834 3.33622 25.4286 -7.73394
175 1 Ar 5.49737 7.22759 0.721526 -1.26635 0.284918 -1.24709 -8.38952 -17.4419 -39.7734
3736 1 Ar 4.97336 6.24073 0.254842 0.0200483 1.38248 -0.039234 6.26761 3.19121 1.57568
177 1 Ar 6.67708 6.92631 0.390422 -0.875751 -1.43924 -0.0454693 -15.1591 7.73005 -11.9331
179 1 Ar 8.42965 6.89937 0.48673 1.6471 -0.256337 0.606021 -1.82182 -36.8194 13.1509
180 1 Ar 7.3978 7.40559 1.0894 -0.423309 -0.383502 -0.186896 7.37533 20.8613 -32.4961
538 1 Ar 7.24697 6.37194 1.03108 1.40664 0.292709 -1.25396 8.27296 -1.32803 -21.8414
574 1 Ar 6.19473 7.14193 1.3993 -0.777417 -0.630024 0.369175 32.3106 -5.73394 27.3223
184 1 Ar 8.48944 7.10001 1.53461 0.332692 0.882058 0.712162 -0.0553668 -12.3723 -30.6941
183 1 Ar 8.73204 5.80304 1.19248 -1.1904 -0.430432 0.637837 15.7118 13.7227 1.0653
185 1 Ar 10.2625 7.27179 16.7227 1.00098 0.914575 0.910783 8.31243 5.59422 3.95979
542 1 Ar 9.2781 6.37013 1.98162 0.0238778 1.37676 1.72151 -28.2338 -6.1962 9.67827
582 1 Ar 10.4933 7.70458 1.04465 -1.3205 -0.922084 0.425601 8.35124 -22.4952 -16.3919
585 1 Ar 10.1178 6.64576 1.56272 -0.149357 1.08157 0.0287442 18.95 10.2656 -27.1769
152 1 Ar 12.5331 7.22362 1.47333 -0.96363 0.485626 -0.178029 5.66189 10.355 -5.29429
187 1 Ar 11.2891 7.47441 0.269534 -0.0565511 1.21464 0.0627739 11.1805 21.9295 34.5856
189 1 Ar 11.1265 6.54851 0.0106123 0.466871 0.274618 -0.509873 -18.7754 -29.3588 7.39932
550 1 Ar 12.9044 5.80675 0.61773 1.32022 0.928216 1.35 -15.7011 20.2737 29.7953
589 1 Ar 11.9072 6.73833 2.10448 0.254332 -1.20594 0.723515 -18.1502 -8.37875 12.584
191 1 Ar 12.1244 6.77288 0.486301 0.241399 0.742695 0.811034 -6.74624 -8.73804 11.0286
160 1 Ar 14.9453 6.00703 0.693553 0.373325 0.112942 -0.649324 17.333 0.522671 3.3788
195 1 Ar 14.6091 7.99257 16.5135 -1.35508 -1.18923 -0.828175 9.28577 16.6928 -5.83171
199 1 Ar 15.2605 7.06113 1.0462 -0.545222 0.363148 1.09376 -1.19173 4.01608 -12.6512
561 1 Ar 0.341051 6.43706 1.09754 0.0608992 0.221302 -0.792281 -46.9834 28.4669 45.6214
201 1 Ar 16.5942 8.27065 0.484804 0.730277 -0.798091 0.4918 -10.0858 6.29345 20.1796
203 1 Ar 0.464354 7.5399 0.152874 -0.669651 0.260104 -2.07192 -38.3224 -21.4417 4.74876
202 1 Ar 0.460405 8.94865 0.0175213 -0.00224904 0.777207 -0.737598 5.21177 3.26802 -5.28585
208 1 Ar 1.20733 8.7669 1.0695 -0.427968 -1.25101 -0.751517 -6.42928 -5.13844 -2.24717
207 1 Ar 1.9934 8.76633 0.36035 -2.73993 -0.3931 -0.418048 -6.51586 -2.35275 -23.8
206 1 Ar 1.24398 9.70326 16.6801 0.26284 0.031264 -0.715815 38.2967 -15.5151 19.2097
212 1 Ar 2.73777 9.41772 0.593716 -0.825802 -1.64268 0.93847 14.8607 -2.6851 -3.40894
605 1 Ar 1.11788 7.62507 1.10386 0.22813 0.269676 -1.16041 0.697839 4.97585 3.45934
211 1 Ar 3.99936 8.2466 1.25188 -0.307666 0.287037 -0.279993 -2.55727 0.983786 -0.529326
210 1 Ar 2.9981 8.19641 0.54846 2.41171 -1.78126 0.456894 16.6657 12.9164 -10.5432
176 1 Ar 4.78536 8.03763 0.451444 -0.481673 -0.564739 0.0824908 -1.66877 7.95627 -4.23116
214 1 Ar 5.55502 8.8856 0.375138 0.0466387 0.151248 -0.146336 2.66381 2.00452 -11.298
216 1 Ar 4.00759 7.99157 16.2436 0.199559 -0.56644 -0.783509 7.40235 17.3892 7.55804
613 1 Ar 5.01412 7.8792 1.47675 -0.641704 0.184482 1.17889 25.8213 18.6235 -31.7301
174 1 Ar 5.99915 8.08632 0.852944 0.0696769 0.0621329 1.16671 3.13147 1.74591 -7.53635
178 1 Ar 7.04409 8.14914 0.0170269 -0.970531 -0.0165573 -0.107208 24.1906 9.72013 52.1377
219 1 Ar 7.82581 8.40523 0.686315 0.0471718 0.506217 -1.01419 -3.64194 6.59016 7.34706
614 1 Ar 6.72157 8.13843 1.5711 0.369296 -1.15983 -0.0229133 10.511 5.74755 11.9927
182 1 Ar 8.506 8.1232 16.4573 -1.71693 0.297843 -1.25392 -10.826 3.70562 1.73758
221 1 Ar 7.68856 9.08194 16.6495 1.45706 -1.19457 -0.553843 -6.21876 2.6101 0.633969
223 1 Ar 8.69286 7.84169 0.73905 0.651965 0.0273546 0.543955 8.9148 20.6556 6.51354
188 1 Ar 10.7689 8.38301 0.0442569 -0.156169 1.38548 -0.70212 2.41833 -21.7891 -15.3146
225 1 Ar 9.72829 8.02377 0.394696 0.881368 -0.541002 1.47236 -11.1217 18.5774 -3.05937
227 1 Ar 10.9011 9.13473 0.751677 -0.0174698 -0.278862 -0.550614 6.67779 4.4038 11.3301
586 1 Ar 11.5461 7.4787 1.27934 0.540419 -0.107114 1.18544 -1.45495 -7.18176 7.09941
625 1 Ar 10.1211 8.59238 1.32919 -1.085 -0.0996142 -1.07834 -8.45833 15.9461 4.80042
192 1 Ar 11.7516 8.42717 0.403123 -0.294884 0.65874 -0.377503 -6.25794 -0.625349 27.9907
229 1 Ar 11.894 8.52416 16.1958 -0.841415 -0.438829 -0.781724 -37.5126 -21.1185 -42.7977
190 1 Ar 12.5487 7.72319 0.27706 0.274153 -0.540201 0.744486 13.6841 10.9101 18.2344
196 1 Ar 13.3371 7.93932 1.78281 0.249283 -0.320162 1.3373 -0.85831 9.27285 -2.56938
194 1 Ar 13.8414 9.3018 0.348406 0.0752382 0.577709 1.62656 -0.970215 -3.5105 -10.8184
197 1 Ar 15.4834 8.43576 0.41745 -0.648182 -0.786238 -0.33444 9.13443 -0.832752 -3.10662
235 1 Ar 14.5701 8.58609 0.894696 -1.59704 -0.476446 -1.3086 -3.82576 4.33171 5.02846
236 1 Ar 15.4612 8.82053 1.74572 0.663422 1.30073 0.862604 2.63585 9.45564 -9.61427
637 1 Ar 15.1828 7.90255 2.19097 0.628441 0.442361 -0.966122 -9.18598 -7.23938 11.5489
239 1 Ar 16.0022 7.84582 1.5659 0.00546602 -0.460232 1.16193 -5.00255 8.51821 -12.7434
240 1 Ar 15.9406 9.86 1.44546 -0.136091 0.034313 1.17719 -18.9397 -0.108183 10.129
204 1 Ar 0.0738395 9.53502 1.21126 -1.52987 1.32504 -0.362349 15.4899 -3.9754 -13.0644
243 1 Ar 1.0537 10.238 1.23692 0.811316 -0.102274 1.67087 0.378103 -1.30353 1.12661
242 1 Ar 1.28568 11.2537 16.6012 0.740843 0.557982 -0.550278 -1.14062 -6.4213 0.484985
245 1 Ar 2.08763 10.251 0.351476 -0.110479 0.699385 -0.560079 -3.02045 9.22557 8.16034
247 1 Ar 2.94193 10.1865 1.26919 0.529196 0.35683 -1.08571 -7.42959 15.9269 9.33123
249 1 Ar 3.18493 10.3026 0.0568663 0.965813 0.53621 -2.15954 -6.94813 5.86612 8.07559
248 1 Ar 1.84348 11.2137 0.965489 0.109607 0.931628 0.322547 -4.25034 -2.43278 2.25688
251 1 Ar 3.8278 8.95107 0.295898 -0.218124 -1.32895 0.427301 -14.1091 -24.7242 5.13552
612 1 Ar 3.8577 9.81328 0.882823 1.24421 -1.06866 0.338011 -18.5937 5.29347 -8.639
653 1 Ar 4.78858 9.96916 1.17503 -1.28493 -0.403099 -0.533854 31.4153 5.55872 12.7671
253 1 Ar 5.82804 8.98496 1.39174 0.647812 -0.485368 1.13128 38.5685 10.7411 9.13165
255 1 Ar 5.91327 9.90646 0.524992 0.20182 -1.04151 -0.694087 -21.2613 -5.53364 11.1967
256 1 Ar 6.0516 12.0273 16.6407 2.55022 -0.766809 0.16164 9.68238 -0.743014 1.60352
215 1 Ar 6.69976 8.92496 0.683203 1.69496 -1.11685 0.68327 -3.49555 -17.9415 -12.5142
220 1 Ar 6.88227 9.76759 1.17323 0.617765 1.25743 -0.0638817 2.04223 17.2369 24.6044
297 1 Ar 6.40613 10.9284 0.882133 -1.10184 0.739648 0.326123 1.0043 -7.20559 -10.6401
218 1 Ar 7.96707 9.55774 0.875641 -0.0162256 -0.416322 0.351494 -21.765 -25.881 -8.15089
259 1 Ar 7.38951 10.5419 1.71922 0.0271288 1.58618 -0.978956 -11.9953 -47.0567 22.2528
224 1 Ar 8.55194 9.40869 1.92938 -0.0424625 0.157843 -2.03346 6.4497 25.2818 20.2594
222 1 Ar 8.75412 9.04825 0.22421 -0.196096 0.726472 0.338006 3.0727 -6.82854 -2.72396
228 1 Ar 9.8431 9.47382 1.86775 -1.72443 -0.950907 0.25134 -40.6994 9.60262 -6.91663
265 1 Ar 9.58813 9.79283 0.698529 0.0273352 -1.70579 0.778842 -7.17803 13.4213 8.25355
226 1 Ar 10.5453 10.0448 16.4026 -0.334848 0.299122 -0.966136 7.84221 4.20954 19.9029
232 1 Ar 11.9223 9.47644 0.628407 0.137392 1.42923 0.362888 7.14489 6.54544 -1.53022
267 1 Ar 10.5715 10.0054 1.31036 -0.821941 -0.961085 -0.320369 -4.08872 -0.0848566 -20.1222
269 1 Ar 11.4504 10.6399 16.7346 0.154177 0.0744356 2.39848 -3.27788 3.67717 -0.475669
272 1 Ar 12.2752 10.5918 0.890373 0.171658 0.134138 0.849385 -8.09673 -5.77025 2.56202
231 1 Ar 12.8851 8.79983 1.21311 0.509243 0.3109 0.716897 3.72089 4.46747 -8.98855
271 1 Ar 13.1729 10.4213 1.97097 -1.17623 0.147652 0.669053 0.565482 -24.4204 -4.33322
273 1 Ar 13.1903 11.0381 16.2419 0.143543 0.788333 0.524851 2.63819 -7.03658 0.0679713
234 1 Ar 15.0954 10.2753 0.836922 0.983915 0.557213 0.0690229 -11.6124 2.2734 -6.91201
275 1 Ar 15.4962 11.239 0.710116 -0.959417 1.02946 -0.249954 -8.56655 12.542 -10.4574
241 1 Ar 0.430988 10.1312 0.266807 0.746062 2.53575 1.03598 -24.9519 7.38134 9.74054
279 1 Ar 16.3862 10.6929 0.978945 -0.291825 0.0592767 0.576417 19.6819 10.9938 11.5186
244 1 Ar 0.724068 11.1124 0.678596 -1.75482 0.496419 0.44824 4.63141 -9.54194 -11.6212
283 1 Ar 1.39615 12.1291 1.52325 0.074465 -1.41606 -0.107751 -7.49151 1.64072 -9.38449
285 1 Ar 2.2112 12.034 0.364747 -0.90574 -1.12717 0.405744 0.443313 3.5423 -4.79757
287 1 Ar 2.96986 11.176 0.673203 0.385101 -0.73311 0.00910462 -0.264404 1.02888 23.5567
252 1 Ar 3.85308 10.3252 1.97193 1.25156 1.06738 0.435532 0.569881 -4.11237 -5.87882
250 1 Ar 5.18988 10.8568 0.69468 0.926995 -1.07182 -0.00924542 36.9377 4.62469 -21.7495
291 1 Ar 4.61823 11.3969 16.5635 -0.160841 0.416805 -1.22585 11.0424 7.19487 -7.82897
649 1 Ar 4.39045 10.5153 0.221126 -0.334828 0.953568 1.49381 -42.9792 -16.9645 26.9329
650 1 Ar 5.23014 11.0593 1.66775 -0.0657713 -1.14865 -0.215353 10.9043 -2.5016 8.21429
689 1 Ar 4.29743 10.9283 1.22503 0.519793 -0.553734 -0.478177 -20.6117 2.99818 -0.112402
654 1 Ar 6.26151 12.0571 0.960547 2.0395 0.162028 0.12739 -14.0253 -20.3287 -13.7249
693 1 Ar 5.06424 12.3904 16.7139 2.12926 -0.665208 -0.71484 -9.63257 -9.88537 -14.2371
295 1 Ar 7.8405 12.3888 1.00826 -1.31684 0.954218 0.556223 7.50888 -0.894562 13.3298
258 1 Ar 7.05517 11.6498 0.28948 -0.937445 -0.0953035 -0.11189 -1.31511 -13.0676 4.18714
264 1 Ar 6.32457 11.1948 1.88714 0.481424 0.0605602 1.00548 -13.5175 1.931 -16.5502
301 1 Ar 7.59275 11.4276 1.42082 -0.479133 1.13635 -0.310945 13.0851 37.3951 -34.713
662 1 Ar 8.73557 11.2501 1.49612 -2.15882 -0.851199 -0.350113 -2.24593 9.16037 8.94399
263 1 Ar 8.66032 10.2072 1.13491 -0.157329 0.735585 1.15097 22.1606 5.00788 24.0164
268 1 Ar 10.1866 11.7219 1.6483 -0.593744 0.249191 0.253378 -21.9288 -21.4387 -4.84797
266 1 Ar 9.64248 11.5719 0.571474 -0.36849 -0.319509 0.0297638 10.4834 -5.04663 -5.46212
309 1 Ar 10.9323 12.367 1.67436 -0.492194 -0.946278 0.988854 33.2706 14.1273 -4.20589
666 1 Ar 10.7276 11.0575 0.886122 -0.815612 -0.830814 0.580058 -5.44831 1.06299 -11.138
270 1 Ar 12.3555 11.3855 0.0362131 0.967558 -1.39114 0.0120637 -12.2263 -0.320731 0.880247
311 1 Ar 13.2405 11.0226 0.500742 0.266516 -0.537198 -0.341976 0.137813 0.918681 11.2334
310 1 Ar 12.8505 12.1839 0.538993 1.3312 -1.11258 1.17008 -6.46643 4.55096 -7.55394
276 1 Ar 14.1419 10.6122 2.0435 -0.488028 -1.46367 0.986773 7.99694 2.38567 -8.41934
313 1 Ar 14.0392 11.6585 16.628 -0.141276 0.673286 -1.16894 -8.60775 -1.00105 1.30687
315 1 Ar 14.1627 11.1716 1.08667 -0.302098 -0.72935 0.838461 8.2306 -20.3253 -26.4735
319 1 Ar 16.6191 11.7476 0.617185 -0.680936 -0.459641 0.550398 -15.503 10.6582 6.13481
284 1 Ar 0.251147 12.5547 1.1342 0.315986 0.778685 1.52339 3.46443 2.65733 -2.95716
282 1 Ar 1.06933 12.1139 0.481549 -1.06264 -0.161137 0.58935 -1.93848 -17.082 -0.541113
323 1 Ar 0.310965 13.059 2.05457 0.595514 0.937127 0.00160281 13.3414 -46.6262 17.5626
286 1 Ar 2.78641 12.3686 16.2588 0.562533 1.48548 0.329878 2.10547 4.57417 -6.96954
288 1 Ar 1.5114 12.9881 16.2976 0.325553 -1.48471 0.914483 -1.00383 -7.40618 4.17949
327 1 Ar 4.1329 12.8676 0.345935 -0.821965 -0.654854 0.55502 10.4381 5.88459 -0.590538
686 1 Ar 3.15026 12.644 0.663603 3.13443 0.834702 -0.557929 -13.8732 -8.18725 -13.4785
292 1 Ar 2.93236 11.332 16.4711 -1.99097 0.755112 -0.20436 -14.8819 2.45955 -15.6444
729 1 Ar 4.29242 14.0493 16.7489 0.849817 -0.860407 -1.052 0.614106 -10.275 1.44958
331 1 Ar 4.10039 11.9575 0.951605 -0.141364 -0.596374 -0.522441 -1.17124 1.97163 -2.40318
296 1 Ar 5.82171 13.1082 16.2195 -1.22001 0.975379 -0.260734 3.75567 -7.31009 10.8484
335 1 Ar 5.57676 14.4799 16.7352 -0.893886 0.957724 -1.15518 2.20098 0.744813 15.6632
694 1 Ar 6.44438 13.0342 0.417963 -0.359894 -0.659616 -1.83138 -16.9515 -0.699272 2.59705
733 1 Ar 5.12961 13.3551 0.265846 0.299431 -1.1349 -0.179915 1.75667 26.2966 -4.22423
300 1 Ar 7.33951 12.6253 0.136406 -1.38208 0.144309 0.975371 12.938 7.64625 -17.8533
737 1 Ar 7.52904 15.2931 2.11251 -1.46227 0.966692 -0.313485 9.7129 13.0198 -16.1878
262 1 Ar 8.16493 11.8252 0.0814881 1.00422 0.168159 1.00872 -3.00949 -2.51658 -1.61032
339 1 Ar 7.42548 13.4005 1.15142 -0.297443 0.112089 0.18816 7.29062 7.87998 -22.908
341 1 Ar 8.04134 12.5995 15.9 0.690623 1.05347 -1.04818 -13.1387 6.79564 7.14974
302 1 Ar 8.43382 13.3064 0.748601 -0.688786 -1.49764 -1.01872 -2.75896 -14.573 -3.5448
702 1 Ar 9.28371 12.2768 1.92788 0.395292 -0.501186 0.943213 -3.0367 -11.774 52.7784
305 1 Ar 9.7359 12.9881 0.501913 -0.145694 1.77135 0.663457 -6.81624 32.1177 -32.4325
308 1 Ar 9.99816 12.869 1.46995 1.49864 -0.387722 0.723619 10.8711 2.59346 6.04321
345 1 Ar 10.1695 14.0883 0.708494 -0.0907447 -0.8223 0.350646 4.04091 -2.47394 -0.626392
745 1 Ar 9.54044 13.3347 2.355 0.731477 -0.348715 1.21393 17.1039 -14.3245 -12.2292
306 1 Ar 10.4418 12.2834 0.543251 0.266755 0.302506 -0.494154 21.5477 -13.5281 9.41726
312 1 Ar 11.733 12.4754 0.741029 -0.762236 0.691038 -1.11806 12.4632 -7.37866 24.2953
347 1 Ar 11.5069 14.1035 0.617455 -2.86295 0.696647 0.0370122 -72.9247 52.3409 -64.9197
352 1 Ar 12.1236 13.669 1.13783 0.063118 0.907114 -0.177507 48.9239 -69.4966 94.4519
351 1 Ar 12.6307 12.4322 1.5989 0.0576532 0.60302 0.911703 -11.8049 -16.6605 8.46999
317 1 Ar 14.9044 12.1159 0.211069 0.620559 0.626162 0.156502 9.26656 -2.26874 3.31264
316 1 Ar 13.2075 11.3831 1.56856 -0.397846 -1.24148 0.915436 -4.02253 12.8444 -5.7105
320 1 Ar 14.9439 13.3446 2.47419 -1.63 -0.468272 1.961 -1.73123 4.17855 -9.47957
355 1 Ar 13.3463 13.0638 1.32495 0.363997 -0.970456 1.39937 -9.26706 15.1314 -9.31035
356 1 Ar 13.6144 12.9351 0.0784085 -1.49654 0.416375 -0.566684 4.6345 1.0229 9.26073
321 1 Ar 15.9311 12.7353 1.44588 -1.02054 -0.28831 0.246201 12.6378 0.933764 5.87106
357 1 Ar 14.8036 13.1895 0.303149 -0.292655 2.16358 0.826209 -8.20172 -44.3137 17.3523
318 1 Ar 14.8357 12.483 1.55308 0.34131 1.32618 0.346387 17.8222 -11.0009 -4.19542
359 1 Ar 15.5957 13.6655 1.51135 0.0160556 0.629907 0.370877 -26.422 17.5811 7.68481
322 1 Ar 16.6787 13.5628 0.715857 0.263569 1.21233 1.21537 2.72975 2.11901 -15.1468
328 1 Ar 0.910977 13.4998 1.32746 0.320243 1.92327 -0.408498 -10.3246 7.15408 -30.9725
722 1 Ar 0.217553 14.8276 1.26161 -0.333233 -0.88003 -0.480105 -2.3717 -4.14987 -3.57251
326 1 Ar 1.98694 14.2214 16.7238 -0.337293 -0.280642 -0.033799 -6.93947 2.36369 -7.06371
365 1 Ar 0.840222 14.2724 0.343048 -0.47947 -0.334978 -0.18146 1.05221 0.429338 2.53911
726 1 Ar 2.83516 14.1389 0.552686 -0.102221 -0.0520493 -0.381732 -25.6752 2.31732 2.25206
332 1 Ar 3.39837 13.2325 16.411 -1.16667 0.11162 -1.63347 7.30542 -2.17214 10.2521
336 1 Ar 4.23541 14.9097 0.533522 -0.153261 -0.981587 0.0961926 -0.432579 3.12106 14.8415
730 1 Ar 4.14516 14.3875 1.58899 -1.49125 0.755997 -0.681239 -46.7844 0.099203 23.9405
334 1 Ar 6.268 15.1884 0.811522 0.409753 0.505903 1.06723 4.78325 -2.88782 49.5352
736 1 Ar 5.02852 14.3099 1.23469 0.12961 0.538132 -0.179188 49.2154 3.68221 -26.6767
740 1 Ar 6.5281 14.048 0.734414 -0.0930512 -0.577825 -1.03887 -8.32058 10.4332 4.77842
338 1 Ar 7.43775 14.5692 1.10005 -0.120287 -0.549629 -1.35459 -0.0153883 5.7409 8.56341
340 1 Ar 6.4928 14.9735 1.85147 0.307004 -0.265223 0.142154 -5.0353 22.974 -19.3315
379 1 Ar 7.27672 14.7876 0.117748 -0.971031 0.429871 -0.302115 8.03411 1.9927 -10.0086
343 1 Ar 9.28813 13.6729 1.20666 1.08831 0.212096 -0.237598 1.71118 2.98762 6.47436
344 1 Ar 8.4083 15.5711 0.167038 -1.6382 0.351036 -1.05473 -3.25444 5.40645 4.17694
3944 1 Ar 8.17053 14.24 0.363539 1.47494 1.64486 0.902334 4.36285 5.03971 11.9809
342 1 Ar 9.19635 14.9681 1.23189 -0.945236 -1.67427 -0.767437 -0.257926 -3.20666 -0.181148
348 1 Ar 10.5758 14.6246 1.618 1.35155 -0.586194 -0.332913 4.87118 -3.53671 -11.1252
385 1 Ar 10.8401 15.0543 0.491564 0.0655642 -0.544601 0.728129 19.4553 -3.09648 6.07395
346 1 Ar 11.9172 14.8447 1.30306 -1.04222 0.41367 1.23636 -10.9387 18.8857 -15.8591
387 1 Ar 12.6619 14.5705 1.93332 -1.20352 0.404292 -1.37778 -27.9068 -38.2825 -17.6763
389 1 Ar 11.7768 14.8062 16.5826 0.771973 -0.953083 0.780696 -16.3196 -12.6005 15.4097
391 1 Ar 13.486 14.1839 1.26822 0.0118896 -0.802173 0.805126 1.26738 -0.85545 0.880663
789 1 Ar 12.6572 15.2731 3.32279 -0.625464 0.375625 0.231173 4.38707 8.24168 -19.6044
793 1 Ar 13.9736 15.15 1.56963 0.129068 0.707937 -0.938552 -5.18776 14.129 34.5382
393 1 Ar 14.1715 14.8757 0.647924 -1.15242 1.72772 -0.283489 2.88066 -24.911 -29.5321
360 1 Ar 14.306 13.3272 1.39844 0.312845 -0.794156 -0.0399585 15.2462 21.8463 -14.8751
395 1 Ar 15.1184 15.1256 1.40276 0.823605 -1.19459 1.34928 -5.88573 -0.165431 -0.87213
324 1 Ar 16.5758 13.8003 1.69739 -0.119983 -0.803996 -0.270662 0.500613 32.0543 0.276862
358 1 Ar 15.6655 13.7696 0.168725 -0.148794 -0.275922 -1.49127 32.8735 -6.11856 -14.7554
758 1 Ar 15.9469 14.5362 0.927495 0.215308 -0.750215 -0.205892 4.25572 -6.39352 5.25554
3 1 Ar 16.5109 16.6508 0.739475 -2.03094 -0.581873 -0.839669 -19.5632 -15.3858 -0.894903
363 1 Ar 0.791414 16.7106 0.768823 0.938673 -1.03114 0.280463 3.04652 0.951739 -0.355722
761 1 Ar 0.834143 16.0822 2.17217 0.00812693 -0.626002 -0.827753 10.8982 3.83667 -9.07889
367 1 Ar 1.55575 15.3163 -0.0137654 0.442869 -1.81331 -0.898166 2.31992 -2.9035 8.59075
372 1 Ar 3.42022 16.3711 0.211063 0.702188 -1.9316 -0.334236 -19.1123 -57.7448 17.7143
765 1 Ar 1.30519 15.8258 1.0521 -0.5731 0.734852 0.323404 -0.928053 -15.1628 -4.8997
762 1 Ar 2.51029 15.9395 0.965427 -0.68622 -0.32229 -0.28486 -17.2675 5.91249 -7.48717
766 1 Ar 2.17574 14.9296 0.995582 0.355378 -1.51155 0.732423 -13.0532 -3.36092 1.36076
371 1 Ar 2.96562 15.2105 0.364813 1.02015 -0.333303 0.547801 18.2196 -7.0948 -5.18122
370 1 Ar 4.33287 16.0061 0.527809 -0.428232 -0.809729 0.507265 15.4231 -14.2409 -3.8305
773 1 Ar 4.48352 15.4417 1.55059 -0.284544 -0.69823 -0.170932 -15.9218 3.32254 -16.2424
770 1 Ar 3.46504 15.9637 1.33231 -0.769359 -0.0188904 -0.184406 14.8167 -1.29597 -0.863115
373 1 Ar 5.24495 15.3556 0.75385 -0.702066 -1.02714 0.696392 -7.27451 3.19033 3.86782
375 1 Ar 6.37255 16.3629 1.17664 -0.155699 -0.00566726 -0.220538 -0.811119 -2.02385 -1.66506
374 1 Ar 5.60102 16.4189 0.320904 -0.600321 0.371565 -0.0589098 -10.0721 -3.18643 7.40939
376 1 Ar 4.89924 16.4068 1.3964 -0.324404 -0.247661 -1.25456 -6.24915 19.4394 -6.89309