ITEM: TIMESTEP
1900
ITEM: NUMBER OF ATOMS
4000
ITEM: BOX BOUNDS pp pp pp
0.0000000000000000e+00 1.6795961913825074e+01
0.0000000000000000e+00 1.6795961913825074e+01
0.0000000000000000e+00 1.6795961913825074e+01
ITEM: ATOMS id type element x y z vx vy vz fx fy fz
4 1 Ar 0.0576781 0.623164 0.687726 0.690688 -1.65163 -0.708173 10.7833 16.1443 -2.38311
8 1 Ar 1.67929 0.803138 0.824149 1.08663 0.763541 -0.166144 2.53687 -2.35895 -0.98705
368 1 Ar 1.71961 16.3729 0.373383 0.154966 -1.3632 -0.123048 1.29153 -18.53 14.5605
401 1 Ar 16.7088 16.7912 1.71646 -0.557119 1.9823 -0.174138 23.8343 15.2841 -1.20753
6 1 Ar 3.4743 1.30763 0.792337 -0.455978 0.00628497 -0.270154 7.9396 -4.2859 2.71839
7 1 Ar 2.60553 0.206414 0.825219 0.836722 0.565645 -0.363842 -8.59487 -23.6126 -32.5007
412 1 Ar 2.79459 0.909378 1.47718 -0.510334 -1.59462 -0.167754 18.9034 16.9667 13.3343
409 1 Ar 3.6691 0.0192031 1.11151 -0.96767 0.800969 0.602149 4.46889 9.3093 2.08204
410 1 Ar 4.57529 0.789123 1.06594 0.484371 -0.539367 0.0159265 -7.32705 -0.551247 -20.2867
14 1 Ar 5.77194 0.834186 15.6108 -0.329729 0.954909 0.0543571 -20.2342 13.0276 -0.980071
15 1 Ar 5.7791 0.195666 0.797566 -0.210503 0.689564 0.362797 -24.413 8.06864 -12.8813
16 1 Ar 4.87086 0.174106 16.7464 -0.841752 -0.45357 -0.508353 -6.89014 14.6405 11.6226
20 1 Ar 7.25374 16.5028 15.4559 1.27216 -0.0256753 0.607997 7.98586 1.78914 13.3309
457 1 Ar 6.7334 0.449409 0.463027 -0.532552 -0.375605 0.546505 -13.1717 -11.8105 1.22397
24 1 Ar 9.5218 0.238214 1.40574 -2.02587 -0.253765 0.898054 -49.1441 -33.881 7.10338
59 1 Ar 7.35689 0.439886 16.4323 -0.0743879 -0.654433 0.750736 8.62623 -15.2557 -12.5749
418 1 Ar 8.56729 0.328038 1.9871 -1.62172 0.300392 -0.599074 17.7552 -0.923363 -9.93845
461 1 Ar 10.1113 1.51305 1.20112 0.625066 -0.828762 -0.559525 -6.50767 -14.6572 12.3927
25 1 Ar 10.0187 16.6735 0.421871 0.285963 -1.82235 0.286595 15.6826 -8.12329 -17.138
28 1 Ar 10.4662 0.411878 1.26458 0.0354812 1.2168 1.86913 31.6717 12.0832 -9.29703
64 1 Ar 8.64713 1.25562 1.22938 -0.346417 -0.721924 0.309204 25.7769 7.39424 1.00804
63 1 Ar 10.2478 16.5864 2.17998 0.860073 -0.0973846 0.138755 6.87414 5.41123 -5.5663
27 1 Ar 11.7389 1.07229 1.44839 1.03982 0.797174 0.572407 26.3204 -9.24045 -1.83744
32 1 Ar 12.6405 1.39597 0.754961 -0.40493 -0.880914 0.532106 -8.52628 10.8891 7.54778
36 1 Ar 14.1714 1.91197 0.793705 1.18649 -0.0752748 -0.00641929 8.24588 7.60762 14.3596
433 1 Ar 13.2417 16.5109 1.72192 -0.413053 1.21326 0.699762 0.622165 -1.93914 -1.67557
34 1 Ar 14.8526 1.3679 0.119205 -0.55339 -0.446257 0.809877 -11.7138 3.033 -1.95145
35 1 Ar 14.1853 16.5659 1.28184 -1.08741 -0.0913796 0.317728 -9.76478 -18.141 -13.6189
40 1 Ar 14.9789 0.310841 0.377786 0.482722 -0.642206 -0.306539 -1.95297 -2.48888 13.7641
438 1 Ar 15.0529 0.15892 1.60271 -1.65521 0.280994 0.232483 18.578 4.73442 0.41928
43 1 Ar 16.7385 1.44115 0.0489912 1.17285 -0.122444 0.238111 3.38853 9.53159 -6.59823
445 1 Ar 1.57309 1.66099 1.43943 -0.47875 -0.482859 -0.560905 3.20846 9.85193 4.14574
47 1 Ar 1.27633 1.74618 0.330515 0.388546 0.0130451 -1.37035 5.37531 7.07951 8.94937
446 1 Ar 3.35989 2.37199 0.834027 -1.49371 -1.36231 0.321934 -4.93619 11.3239 1.99783
50 1 Ar 4.38681 2.18416 0.835905 1.68545 -0.225475 0.776221 5.42311 -6.08825 -2.08684
51 1 Ar 4.0801 2.79094 2.23349 1.00166 -1.68798 0.161502 -29.9546 6.28216 -21.9798
52 1 Ar 4.13754 1.58549 15.7409 0.54999 0.135634 -1.4794 -0.403849 18.7436 -12.9358
449 1 Ar 2.4728 1.82827 0.64374 0.510579 0.332337 0.57272 -10.4303 -10.124 -5.63628
12 1 Ar 4.65521 1.2975 16.7949 -0.136576 -1.79938 0.0654487 -10.1464 2.91773 0.132426
53 1 Ar 5.99426 1.11854 1.08124 -0.969056 -0.739195 1.07804 -0.366894 24.6038 15.2493
56 1 Ar 6.01577 1.99063 16.4078 0.577783 0.518335 0.300258 -13.5138 2.50454 -4.69058
55 1 Ar 6.67685 1.50803 0.392091 -1.71152 0.335958 -0.248518 2.70418 13.7358 -15.9417
60 1 Ar 7.36503 2.48524 0.511903 -0.0957418 0.307833 0.193785 -26.2902 -2.70408 4.20059
95 1 Ar 6.30659 2.36222 1.14021 0.502584 -0.198063 -0.278635 -5.20229 3.66039 -15.2373
101 1 Ar 9.21002 2.84893 0.247543 -1.20042 -0.601224 -1.26764 -0.962479 6.48518 3.09598
462 1 Ar 9.37066 1.87432 0.502121 -0.411394 -0.623532 0.357481 -11.618 -11.3354 6.20004
68 1 Ar 9.66475 0.80967 0.581456 -1.1121 0.12744 -0.141514 -7.89848 19.5948 -11.2777
103 1 Ar 10.0562 2.51183 1.03365 0.224093 0.267002 -1.41258 21.0544 28.1364 -9.75317
107 1 Ar 11.0907 1.82462 1.09012 0.738157 1.13389 0.844308 7.06056 19.1921 -14.2598
67 1 Ar 12.2587 2.03073 1.52096 -0.502114 -2.1767 -1.08755 9.72533 8.02638 -1.85289
72 1 Ar 11.5715 2.90949 1.25805 -0.186785 -1.25087 -1.08012 -1.72254 -5.3243 25.1576
71 1 Ar 13.348 1.89491 1.61934 1.29999 1.59702 -1.54693 6.6222 -1.90408 3.34339
70 1 Ar 12.1351 2.98564 16.3966 0.175256 0.083357 0.233444 1.2287 -1.45319 -8.23911
73 1 Ar 13.0475 2.45219 0.770001 0.954368 0.452301 -0.123654 5.97191 4.77979 -7.4538
76 1 Ar 12.7423 3.10252 1.56263 -0.84771 -0.592194 0.554003 14.3691 -21.2047 -1.3033
74 1 Ar 15.2656 2.45322 1.12741 0.328021 -1.24355 -0.305838 -26.4438 -12.3448 -5.72271
75 1 Ar 13.7781 2.98722 1.79509 -1.24839 -0.000855666 0.546524 5.37731 4.20353 -5.04683
44 1 Ar 0.0333206 2.45712 0.70622 -1.16456 0.44539 -0.916606 -0.108301 7.262 -8.36388
79 1 Ar 15.8636 0.63372 0.963075 1.46291 -1.93431 -0.590344 -11.3538 -1.60297 -15.8449
82 1 Ar 0.78375 4.19062 16.5467 -2.04219 -0.759439 0.48346 0.622322 9.17069 17.2799
83 1 Ar 0.720259 3.04847 0.0434642 -0.400639 0.208647 1.30751 -31.41 4.02317 0.633224
88 1 Ar 1.80324 4.27213 0.105645 0.362893 -1.05925 0.392619 20.7987 5.84216 -27.6281
123 1 Ar 1.14842 4.72293 0.72498 0.0807094 0.417556 -1.08004 -35.4863 35.1006 0.100878
48 1 Ar 1.67547 2.76972 0.0904917 1.69886 -0.530588 0.805385 20.2612 -6.47548 4.78056
87 1 Ar 3.09583 3.22507 0.0909808 1.05443 -1.1923 0.525763 31.4135 -13.8324 -6.24594
91 1 Ar 3.8139 2.28593 16.6175 -2.77506 0.725818 -1.06094 11.3865 49.5329 2.87712
92 1 Ar 3.09551 4.28069 0.288901 -0.720667 1.74168 0.957021 -4.33371 3.49315 -1.11924
490 1 Ar 4.88294 3.10699 0.590018 -0.44588 -1.15639 -1.40733 4.73546 3.33498 -15.8948
96 1 Ar 5.35111 3.42905 16.3201 0.213489 -0.189662 -0.0764 3.18068 2.38352 17.5367
493 1 Ar 5.39325 2.03153 0.510874 0.745511 -0.443731 0.031206 7.28639 -3.6754 5.46879
500 1 Ar 5.95098 3.66797 0.97392 -0.597519 -1.3884 0.205802 15.3243 -13.6776 -20.4591
97 1 Ar 7.42088 3.22944 16.1351 0.262325 -0.699036 0.136353 -4.93764 -3.16066 -7.18
100 1 Ar 7.32855 4.54141 16.6662 -1.07182 0.105113 -0.898697 1.08713 10.6583 -11.3939
494 1 Ar 6.06347 2.9085 0.235409 -0.765336 -0.478237 -0.656386 -0.977681 -2.4182 -6.70708
498 1 Ar 7.05025 2.61386 1.83284 1.5425 1.10766 0.775143 15.4315 3.0452 -12.3406
98 1 Ar 8.467 3.62376 0.0380418 0.479869 0.125704 0.845177 -3.21938 23.608 -6.47705
99 1 Ar 8.2752 2.84792 0.854567 -1.29078 -1.18303 -0.152711 17.3189 9.27147 7.99402
108 1 Ar 10.2553 3.68261 0.93311 -1.74408 0.874777 -0.567531 13.1444 -9.15345 3.48971
112 1 Ar 11.5048 4.17677 0.618557 0.498 0.543693 1.24205 -3.22262 2.18431 4.37428
506 1 Ar 11.0799 3.87406 1.71199 0.57855 -0.17871 0.687971 15.1326 39.1518 -17.1035
110 1 Ar 12.2279 3.33498 0.614472 -0.0710177 1.42959 0.459493 12.5918 5.68823 -14.0427
111 1 Ar 13.0052 3.76802 2.56353 1.48092 1.20768 0.55635 -9.52371 1.47817 2.49783
113 1 Ar 12.4883 4.48039 0.112268 0.700765 -0.490318 0.326524 -0.187616 -2.20797 -3.13137
116 1 Ar 12.2768 3.98323 1.45457 1.18678 -0.129177 0.740375 -12.0599 2.32475 13.3688
115 1 Ar 14.2434 4.07781 0.184096 -0.564851 -0.60075 -0.0983943 -20.8927 -14.4563 -7.59962
120 1 Ar 16.042 4.18504 1.22064 0.384684 0.24777 -0.0548016 -9.24329 -9.75159 -0.353755
514 1 Ar 14.5808 4.23464 1.3726 -0.18761 -0.770437 -1.11658 -17.5823 24.3464 -5.3589
517 1 Ar 15.1368 3.55631 1.84501 0.144767 0.838536 0.203567 16.9153 -15.2652 12.2429
84 1 Ar 0.0190536 4.57588 0.657034 1.24798 -0.7734 2.01453 14.7796 10.8533 1.72311
117 1 Ar 15.9247 3.03333 0.53985 -0.53572 -0.681009 0.452179 -1.79961 16.5397 -14.4479
163 1 Ar 0.289334 5.66451 1.16008 0.2709 -0.944378 0.471868 -2.44893 -27.9887 9.00886
522 1 Ar 1.24729 5.95024 0.70895 -1.08824 -0.0185793 -0.142925 1.39123 -2.6598 8.30502
127 1 Ar 2.5051 4.884 16.3705 -0.824274 0.520854 -0.324332 10.3112 -2.16446 7.48671
128 1 Ar 2.22084 5.35234 0.929869 -0.820414 0.691445 -1.34588 -0.987933 -7.77648 0.861106
132 1 Ar 2.94591 5.8511 16.6563 0.0719851 -1.10738 0.716981 -5.25012 10.9102 -17.3483
133 1 Ar 4.45826 5.08579 0.399112 -1.55308 0.190525 0.422542 -5.19375 -8.16547 -10.1086
526 1 Ar 3.35816 5.23342 0.553288 0.174333 0.295063 0.203325 11.5191 -18.9735 10.8595
529 1 Ar 4.38731 3.61035 1.39288 0.222976 -2.89177 -0.663196 7.77602 6.55045 1.21076
569 1 Ar 3.242 6.18468 0.852253 0.132093 -0.731376 0.0447463 3.23532 17.8564 20.4125
134 1 Ar 6.01652 6.0239 16.6912 -0.973486 1.64589 0.531214 49.1142 20.5711 0.839363
136 1 Ar 5.16158 4.20791 0.524841 0.36058 -0.732435 -0.429504 -8.46757 -10.2641 12.5247
534 1 Ar 6.7634 5.54288 0.479649 1.37334 -0.0198226 -0.621823 7.71715 5.1189 -7.28211
135 1 Ar 6.27044 5.14922 16.2609 0.0340378 0.0452593 -0.833484 10.5322 -12.0036 5.24409
140 1 Ar 7.21089 6.27063 16.5467 -1.0663 1.06284 0.332546 1.87857 -5.48697 3.38191
537 1 Ar 7.09747 3.63939 1.30104 0.619043 -0.084205 -1.03927 -8.48793 -2.06448 20.5052
540 1 Ar 7.50583 4.59572 0.939967 -0.384251 0.158098 -0.197399 0.692994 12.2795 3.7627
104 1 Ar 10.3456 4.76021 1.95514 -0.0275964 -0.71452 -0.24387 -13.74 -6.9173 0.269676
139 1 Ar 7.95572 5.61653 0.203212 -0.211812 2.10878 -1.31075 -8.82385 -14.6195 10.0486
144 1 Ar 8.73679 4.93388 0.602237 -0.945954 -0.760617 -0.678003 -1.14825 -0.167926 -11.723
145 1 Ar 9.80679 5.25579 16.7174 -0.600668 -0.40397 0.020647 13.9533 -29.8401 -11.1016
148 1 Ar 9.27547 6.01527 0.269127 0.604044 -0.636704 -0.44505 -23.8666 20.0576 6.06949
147 1 Ar 9.47853 4.35266 1.11777 1.26448 0.462194 -0.0469431 0.474273 12.4276 26.9447
151 1 Ar 10.3294 6.01261 0.496287 0.0247527 0.114838 0.591679 -7.01192 -25.1038 44.0309
510 1 Ar 10.6173 4.94365 0.987496 0.0109348 -0.303018 0.967154 1.83578 -1.35306 -19.9243
546 1 Ar 10.9685 6.60316 1.08495 -0.614104 1.42153 -0.277643 5.62175 10.8939 16.7131
150 1 Ar 12.7189 5.54444 16.4266 1.05108 -1.54231 -0.684745 16.466 -14.22 5.65295
153 1 Ar 11.8314 5.55718 0.179041 -0.335215 -0.6059 0.274035 -10.035 -7.25821 7.58036
155 1 Ar 13.7403 4.76658 0.919689 0.295101 0.272741 0.790461 7.44203 24.3337 -0.387632
157 1 Ar 16.0981 5.43278 0.483388 -1.40469 0.867708 -0.619327 12.4426 -0.41813 -4.93135
159 1 Ar 14.8024 4.89242 0.347945 0.379242 -1.28921 0.105542 3.98208 0.328703 25.7118
124 1 Ar 16.229 5.13479 1.8567 0.551749 0.221832 -1.6264 21.6616 9.29455 -5.22884
158 1 Ar 15.6725 6.19091 1.33281 0.390184 0.751205 0.117684 5.74619 -1.37553 -0.0992402
162 1 Ar 1.31752 6.86432 0.168424 0.956758 0.616752 0.985673 -10.8578 0.371918 -9.18366
164 1 Ar 16.2004 7.30092 0.49827 -0.327918 0.593026 0.951535 -3.10572 -2.00576 3.64093
168 1 Ar 1.16725 6.56903 1.57754 -0.725916 0.713043 -0.546442 -4.44095 3.82019 4.98008
165 1 Ar 1.59072 5.33631 16.7184 0.140858 -1.11957 1.45175 2.13368 0.786468 -3.97193
166 1 Ar 2.15461 6.70067 16.2111 -1.06355 -0.573708 -1.41859 -3.55164 -10.1512 0.122262
167 1 Ar 2.26008 6.32549 0.500084 -0.65667 1.36135 -0.842354 -10.8119 13.6797 -1.29671
566 1 Ar 2.21153 6.81636 1.56746 -1.19835 0.441495 -0.873703 1.18348 -20.9156 13.3993
170 1 Ar 4.34209 7.02668 0.775944 1.2343 -0.34381 -0.843121 -1.68216 -20.744 1.57071
171 1 Ar 3.32797 6.98092 0.177179 0.607236 -0.683456 0.934152 39.1677 -27.3922 21.2855
172 1 Ar 1.92138 7.41681 0.805916 -0.521402 0.229842 0.175046 1.54888 18.8467 -5.6664
173 1 Ar 4.04364 6.03541 0.138021 0.532258 0.527224 -0.967719 -6.83335 3.97028 15.1747
175 1 Ar 5.40692 7.35847 0.37184 0.514592 -0.125344 0.660966 0.743859 -4.02553 -5.7332
3736 1 Ar 5.11821 5.86082 0.168199 -1.62242 -0.512164 -0.705608 -47.6559 5.64622 22.1806
177 1 Ar 6.46323 6.85704 0.434751 0.222873 -0.392441 -1.61175 3.11786 13.8366 -13.5338
179 1 Ar 8.45663 6.92687 0.228142 -0.850343 1.97506 0.796241 2.55786 -4.84936 -15.873
180 1 Ar 7.24232 7.46052 0.802593 -1.48671 1.76059 0.851157 18.6281 -4.99765 8.13091
538 1 Ar 7.36812 6.37545 0.814539 -0.0580083 1.03171 1.23933 2.9839 37.2081 -18.5878
574 1 Ar 6.17365 7.17184 1.49554 1.7877 -0.646018 -0.691838 5.17866 -7.84203 1.92241
184 1 Ar 8.29469 7.21805 1.17961 1.30695 -0.140944 -1.68773 -2.50579 4.35832 21.5612
183 1 Ar 8.46249 5.99217 1.06977 0.348345 0.393034 -0.65184 -17.4403 -11.3958 -24.1553
185 1 Ar 10.3628 7.03112 0.218691 0.165272 -2.09809 0.116059 -5.2633 29.7348 -4.60921
542 1 Ar 9.01958 6.43183 1.7397 1.37536 0.15967 0.692205 16.5236 17.3474 26.7752
582 1 Ar 10.3932 7.97671 1.07642 0.471391 0.26744 -0.277687 7.84017 -12.0684 2.32418
585 1 Ar 10.0854 6.46734 1.73675 -0.52508 0.276757 0.241109 -2.7037 -12.0322 -19.4414
152 1 Ar 12.77 7.55262 1.4234 -0.471348 -0.212156 -0.876705 -32.1239 1.25093 -5.53753
187 1 Ar 11.3431 7.44382 0.478471 1.04433 -1.9058 0.567049 -3.37053 -12.4568 -25.5103
189 1 Ar 11.1671 6.42955 0.0795167 0.678014 -1.08583 -1.03352 26.0535 -7.23239 -18.1535
550 1 Ar 12.774 5.8101 0.693929 -0.417072 0.0465462 -0.0355203 6.22081 2.32314 1.50443
589 1 Ar 11.7119 6.6584 2.19627 -1.09557 1.71134 1.13949 -9.71291 15.3229 -22.1509
191 1 Ar 12.2794 6.81872 0.665483 0.749285 -0.0162142 0.452026 -4.10768 0.957555 -2.36867
160 1 Ar 14.9217 6.15667 0.199753 -1.89133 -0.174579 -0.407668 -4.58256 11.5766 21.2366
195 1 Ar 14.6909 8.02756 16.7367 0.00694789 0.26264 1.15208 11.9569 24.4182 40.9088
199 1 Ar 15.2482 7.32894 1.05154 -0.276605 -1.10784 -0.384474 42.1648 -0.677025 -3.59015
561 1 Ar 0.255272 6.63709 0.929276 -0.133291 -0.55328 -1.23274 4.75999 19.9567 -16.2323
201 1 Ar 16.7654 8.43372 0.767999 1.48272 1.21969 -0.0418918 -8.5058 -2.14473 4.92133
203 1 Ar 0.359028 7.66268 0.17159 -0.0727344 1.07503 0.075457 9.73626 -8.04101 -7.83661
202 1 Ar 0.412095 9.1712 16.5257 0.421059 1.01556 0.666835 8.32274 0.519939 8.60788
208 1 Ar 0.955236 8.81506 0.625533 2.45521 0.818572 -0.922262 7.89764 1.07975 -1.88323
207 1 Ar 2.26431 8.75285 0.158944 1.78141 -0.550741 -0.561574 -12.3892 -9.90971 2.3339
206 1 Ar 1.31632 9.7948 16.4713 -1.14789 0.77969 0.225872 3.40219 0.561791 2.65883
212 1 Ar 3.11091 9.22674 0.574312 0.343792 0.535324 0.758454 4.1622 0.644899 -5.44746
605 1 Ar 0.720429 7.61237 1.18388 -0.247175 1.82053 -0.962431 -0.885958 -2.0789 -0.0578322
211 1 Ar 4.08735 8.60109 1.46591 -1.30672 -0.0670669 -0.761837 -23.3959 -0.369997 2.58373
210 1 Ar 3.27728 7.93844 0.773734 0.965124 0.527222 -0.0337437 -3.34353 3.05318 1.52488
176 1 Ar 4.35443 8.03461 0.683719 -1.03492 -0.380791 1.0281 14.637 -7.81406 -11.6925
214 1 Ar 5.93788 8.63354 0.119777 -0.15052 -0.303456 -0.73637 -16.3295 -4.0961 10.6137
216 1 Ar 4.07173 8.23148 15.9773 -0.230612 0.699007 -0.53893 -48.0408 21.8097 -23.9469
613 1 Ar 5.23831 7.67813 1.32681 -1.52904 1.07556 0.492931 -7.38511 6.74407 4.91376
174 1 Ar 6.40411 8.02089 0.861082 0.448157 1.31205 0.184385 -27.5963 -0.211473 9.09749
178 1 Ar 6.8971 8.17089 16.7452 0.834942 -0.0900801 0.680148 25.1967 29.1183 12.8051
219 1 Ar 7.85585 8.33775 0.628585 -0.978233 -0.435844 -0.0771257 9.86235 -0.642547 -5.94542
614 1 Ar 7.01178 8.14277 1.76791 1.87133 2.12939 -0.304503 -0.237058 -11.9655 -3.21672
182 1 Ar 8.47232 8.08731 16.3992 0.712947 -0.394491 0.190647 0.169783 -0.363058 0.714915
221 1 Ar 7.59554 9.12265 16.4823 0.412637 0.938535 -1.49716 -2.88765 -5.92452 -7.25481
223 1 Ar 8.94393 8.07395 0.756454 1.01791 -0.00142566 1.61425 -20.0173 -9.10811 10.015
188 1 Ar 10.7629 8.28187 0.0799725 -0.42656 -1.42454 -1.43913 28.9752 9.80063 -1.05881
225 1 Ar 9.7937 8.10025 0.236512 -1.55148 0.0439442 1.60129 -13.4878 -8.97704 -13.436
227 1 Ar 10.9968 9.16175 0.770311 0.53214 -1.16391 -0.392744 9.85073 -8.84716 -16.5521
586 1 Ar 11.5243 7.58608 1.43831 0.141554 2.06054 -0.659746 15.1688 -16.748 12.5412
625 1 Ar 9.74868 8.83076 1.15497 -1.78461 0.876395 -0.338277 18.5318 -16.5083 -1.19471
192 1 Ar 11.7096 8.38701 0.663843 0.508956 -1.29702 0.0320793 6.90003 11.3361 5.78634
229 1 Ar 11.8563 8.28217 16.4232 -1.01019 1.11039 1.36298 -7.67024 5.8622 -11.8483
190 1 Ar 12.6365 7.90498 0.40235 -0.134591 0.259731 -0.445507 3.95993 -19.3614 19.2495
196 1 Ar 13.3784 8.24002 2.23676 0.123906 -0.977583 0.269582 -10.8478 -3.51797 0.309282
194 1 Ar 13.8663 9.18245 0.407473 0.340519 -0.699959 -0.323928 9.82887 -13.3784 -8.22615
197 1 Ar 15.6844 8.30463 0.6623 -1.07902 1.40449 0.460169 -17.2674 1.80436 10.3527
235 1 Ar 14.471 8.50807 0.990155 0.823319 -1.02034 2.38146 7.28106 -1.74154 5.4301
236 1 Ar 16.0096 8.90855 1.69768 0.961155 -1.31851 -0.0185271 -7.92542 -28.6827 0.0617759
637 1 Ar 15.4014 8.03824 2.18687 -0.222282 -1.46202 0.794059 -18.6879 -10.3354 6.0873
239 1 Ar 16.1377 7.8628 1.53582 0.022401 -1.31499 0.217866 9.88876 0.96726 -32.0346
240 1 Ar 16.0972 9.88364 1.52034 0.938332 0.530647 0.28295 -11.9208 33.9917 -17.4432
204 1 Ar 0.0965636 9.49067 0.831436 -0.221578 -0.259471 -0.713469 8.05313 9.03972 10.0697
243 1 Ar 0.974176 10.2493 1.06001 0.669129 -0.134291 -1.19976 -5.44128 -13.3906 17.306
242 1 Ar 1.55559 11.2124 16.6695 0.489979 -1.19563 -0.432999 -12.0078 23.0863 2.05152
245 1 Ar 1.80608 10.4343 0.487104 -2.43518 -0.0124063 -1.00077 20.8424 -30.3443 -10.1913
247 1 Ar 2.83862 10.1496 1.1701 0.659188 -0.712729 0.320182 -27.496 -15.2708 6.80391
249 1 Ar 2.97989 10.3453 0.18197 0.533798 -0.244966 0.864983 2.09064 -0.703701 -14.1931
248 1 Ar 1.70886 11.3076 0.962547 0.365575 2.05175 -0.892078 -3.52451 13.1749 6.68976
251 1 Ar 4.11571 8.80883 0.053865 -0.694369 -1.04528 -0.388244 -6.99023 15.5403 -1.58303
612 1 Ar 3.82736 9.92817 0.982126 -0.79588 0.241343 0.397722 14.6328 -11.0106 -28.3183
653 1 Ar 4.87414 10.0601 1.23006 2.04556 0.410041 -1.56231 2.89715 -0.916101 -22.747
253 1 Ar 5.80715 9.09329 1.33646 -0.0298294 0.0811387 -0.0748444 5.40151 -1.06958 -1.35802
255 1 Ar 6.06679 10.0612 0.606253 0.531223 0.431056 0.273733 -2.53582 -8.84528 -2.28528
256 1 Ar 6.60249 12.1918 16.6811 0.00550658 0.0864209 0.142702 -10.5538 7.98159 -13.8458
215 1 Ar 6.9898 8.89376 0.846231 0.764487 -0.184001 0.859147 -2.83069 11.3911 -0.188162
220 1 Ar 7.21197 9.87214 1.36264 0.661641 -0.226209 1.32634 -3.11663 -13.1801 -6.97364
297 1 Ar 6.72079 10.8004 0.979236 1.43371 0.135107 -0.111973 -2.57301 4.66743 -12.8444
218 1 Ar 7.98971 9.5341 0.565282 -0.0815111 0.25616 -1.01085 -11.2078 -32.7822 36.0964
259 1 Ar 7.32893 10.806 1.80304 0.397376 -0.463034 -0.500983 15.59 6.29375 -2.18343
224 1 Ar 8.68249 9.55306 2.36365 0.973365 0.659948 -2.11722 3.08443 -18.5423 -26.1037
222 1 Ar 8.86661 8.98089 0.133605 -0.218304 0.517937 -0.872906 2.29754 2.23658 0.083808
228 1 Ar 9.41694 9.66863 1.64489 0.780966 -1.12709 0.767771 13.566 11.4786 14.7022
265 1 Ar 9.17093 9.96875 0.611613 -1.50339 1.19993 0.291185 7.3708 -4.34822 7.51209
226 1 Ar 10.6024 10.1824 0.0156708 -0.512262 -0.618566 -0.52726 -9.60865 -14.6228 12.7309
232 1 Ar 12.0282 9.51754 0.718838 -0.0887114 -0.398118 0.341519 7.43899 2.30209 10.4456
267 1 Ar 10.2772 9.80546 0.993638 0.357941 0.641468 0.282418 -20.3947 25.0493 10.2288
269 1 Ar 11.476 10.6408 0.433805 -1.19244 0.724196 -0.372243 -6.62296 3.91871 -1.48478
272 1 Ar 12.3819 10.6288 0.95245 0.225965 -0.288886 -0.637557 -10.2284 -12.3811 11.4142
231 1 Ar 13.33 8.67313 1.29975 -0.342227 0.520349 0.487163 -23.8984 92.587 28.7419
271 1 Ar 13.0618 10.1925 1.86989 0.172087 -0.424092 -1.67615 -4.38983 -10.1334 1.83398
273 1 Ar 13.0213 11.1162 16.168 0.76803 -0.93119 -0.382565 21.0954 1.24684 5.25645
234 1 Ar 15.2005 10.2784 0.740453 0.570259 -0.443231 -0.0907594 6.30755 6.20825 13.2655
275 1 Ar 15.427 11.3733 0.829981 0.176412 -1.32675 -0.938764 8.08693 -24.0488 -23.2932
241 1 Ar 0.346217 10.3441 0.182236 0.0402772 -0.526128 -0.334281 15.4077 -33.5369 2.48959
279 1 Ar 16.303 10.662 0.783434 -0.99051 -0.0937413 -0.304883 -0.673574 4.6772 -0.687943
244 1 Ar 0.612152 11.2011 0.834341 -0.0197219 0.32448 1.27852 -5.66349 -14.625 11.9687
283 1 Ar 1.37535 12.0867 1.57464 -0.497506 -0.940761 -0.80155 0.424577 -37.8428 44.6959
285 1 Ar 2.0807 12.0713 0.333788 -0.269932 -0.373367 0.586282 -0.689873 2.83957 13.4117
287 1 Ar 3.03585 11.3846 0.697172 0.318998 -0.71914 0.293458 0.0112776 0.336506 -5.5317
252 1 Ar 3.57693 10.5125 1.76677 -0.639267 0.401043 0.222569 -5.53654 12.2589 34.6402
250 1 Ar 5.2157 10.7229 0.421699 -0.344306 1.74469 1.32871 -2.80125 11.8411 3.01035
291 1 Ar 4.63886 11.668 0.145615 -0.5415 0.136791 -0.137595 -10.8054 -11.7248 1.48611
649 1 Ar 4.00507 10.6697 0.194386 -1.96905 0.419779 0.81609 -29.9016 6.09883 33.206
650 1 Ar 5.28407 11.2947 1.67151 -0.195114 -0.959433 0.63115 -8.59998 4.75917 -1.94053
689 1 Ar 4.28165 10.9897 1.18748 1.14328 -0.203513 1.44602 11.2629 0.258748 -1.30098
654 1 Ar 6.37331 11.8404 0.870107 0.428335 0.0183507 -0.692717 0.160284 1.87711 6.59343
693 1 Ar 5.6456 11.87 0.0133811 0.477208 -0.481419 2.19263 -8.21676 7.80388 -4.45076
295 1 Ar 7.82287 12.6596 1.46228 -0.149494 0.0468203 0.0835301 -38.0619 16.7691 -41.5359
258 1 Ar 7.184 11.3693 16.7933 -0.834825 0.0394104 -0.255619 27.7962 -22.3419 23.6478
264 1 Ar 6.34388 11.2834 1.90717 0.179387 -0.936217 0.169618 -0.803376 -1.08932 -4.11826
301 1 Ar 7.57792 11.606 1.04737 -0.245191 0.345157 -0.185608 -1.18346 2.26065 1.3881
662 1 Ar 8.87174 11.566 1.69885 -1.42175 -0.196077 0.762275 -1.54167 -13.1712 -2.10184
263 1 Ar 8.41093 10.2465 1.5979 -1.88288 0.247117 0.960333 4.28438 2.47653 -4.19413
268 1 Ar 9.97135 11.7119 1.67017 0.420591 -0.0255816 -0.581439 3.73408 -5.28089 0.375818
266 1 Ar 9.4117 11.823 0.805432 -0.800608 -0.271662 -0.642906 27.4785 -15.7615 -3.73524
309 1 Ar 10.9098 12.1956 1.73529 1.07397 -0.603484 -1.41164 4.80948 7.29935 3.04017
666 1 Ar 10.2692 11.0153 0.816405 -0.849956 1.34759 -0.829596 -4.20477 -2.08065 -18.0341
270 1 Ar 12.4464 11.4527 0.227255 -0.681052 0.111566 0.284641 -26.4422 6.1725 -10.7292
311 1 Ar 13.2581 11.0603 0.663081 -0.239374 0.124488 1.07416 24.9919 -0.994957 -1.2168
310 1 Ar 12.9751 12.29 0.604057 -0.316238 -0.0802626 -0.3717 -4.43902 -10.7541 -23.7126
276 1 Ar 14.3091 10.2054 2.23757 -0.565616 -0.816716 -0.950963 -6.51871 -9.93557 -2.64573
313 1 Ar 13.9113 11.483 16.7246 -0.732521 -1.81337 -1.31264 10.7006 -3.67042 1.7615
315 1 Ar 13.8761 10.5312 1.31574 -1.1726 0.273352 0.410791 9.9654 14.6513 -11.7187
319 1 Ar 16.6857 11.9459 0.60915 0.467214 -0.286913 -0.0101119 0.0452411 3.35801 9.20687
284 1 Ar 0.558482 12.552 1.21833 0.980647 -0.234736 0.395879 -19.447 11.5983 -7.81348
282 1 Ar 0.964064 11.9837 0.318642 -0.7289 0.159157 -1.94047 10.7673 21.627 -1.59819
323 1 Ar 0.286228 13.3024 2.06797 -0.228476 1.92787 0.0732186 -6.48371 -20.2192 -2.10592
286 1 Ar 2.72913 12.6729 16.3432 -0.30085 0.931549 1.23782 9.79189 -7.05978 -15.7297
288 1 Ar 1.61725 12.6451 16.3787 0.215969 0.720817 -0.664366 -5.12888 -1.71587 -10.1606
327 1 Ar 4.63942 12.8346 0.219957 -0.751476 -0.415666 0.757454 -9.08398 -8.7715 4.23429
686 1 Ar 2.99984 12.5284 0.626281 -1.00058 -0.570325 0.615883 15.3562 -7.46201 -1.9314
292 1 Ar 2.52685 11.6068 16.3637 -1.81727 0.754551 1.61229 12.657 -5.94108 -15.8955
729 1 Ar 4.36784 13.834 0.145295 0.116254 -0.859712 1.72364 20.0841 20.9006 7.9774
331 1 Ar 4.0456 11.9865 0.95748 1.16825 -0.793903 -0.39217 4.14253 -1.49399 -19.0982
296 1 Ar 5.7524 12.835 16.1971 -0.979099 -0.168233 0.747157 12.3871 3.36102 6.71408
335 1 Ar 5.31935 14.2828 16.7891 0.530796 -1.05558 0.397541 -4.83891 4.79114 -6.57518
694 1 Ar 6.36164 13.0147 0.635079 1.20423 0.00778098 -0.0328067 10.567 -17.2545 -23.566
733 1 Ar 5.42239 13.2949 0.765548 0.170505 0.564099 -0.38143 -15.692 15.1034 -0.126104
300 1 Ar 7.32631 12.8445 0.136009 -0.289973 -0.943143 -1.21007 5.10352 2.72812 7.27199
737 1 Ar 7.90076 15.2251 2.01042 0.475955 0.0129598 0.769175 -20.9368 -14.1861 -9.20552
262 1 Ar 8.18878 11.9914 0.20481 -0.506502 -0.00879951 -1.47522 0.202671 9.21954 3.42406
339 1 Ar 7.13892 13.6464 0.885301 0.806518 0.641611 0.493152 35.0552 5.06139 -10.6982
341 1 Ar 7.9063 12.9325 16.0147 1.29346 0.165453 0.801002 4.97442 2.35288 2.57678
302 1 Ar 8.28248 13.1538 0.344913 1.3048 0.288754 -1.22669 -3.66569 5.21603 -0.189324
702 1 Ar 9.22682 12.4228 2.20834 0.499329 1.21937 1.25961 -49.6859 -21.6738 -2.10031
305 1 Ar 10.1731 13.1807 0.252413 0.215795 -0.0323532 0.298992 -28.3014 -32.531 47.2593
308 1 Ar 9.72044 12.7006 1.32545 0.926803 0.44748 0.295483 24.055 7.85539 -8.22489
345 1 Ar 10.0324 14.0954 0.887928 -1.25363 0.325115 0.155887 -9.01371 -10.6506 1.37877
745 1 Ar 9.50924 13.4481 2.02254 -0.435519 0.745169 -0.726167 43.9901 21.3325 11.2704
306 1 Ar 10.4839 12.0673 0.813479 0.65745 -0.537203 -0.582567 0.665491 8.03755 -22.4182
312 1 Ar 11.8078 12.6338 0.920545 -1.14153 -0.973454 1.26522 -10.1581 12.1643 -13.8123
347 1 Ar 11.3798 13.9484 0.357807 0.91417 -0.0847495 -0.676714 1.21627 -7.2703 -4.45253
352 1 Ar 12.3411 13.5502 1.1635 -0.235446 -0.139935 -0.679665 -3.63902 3.84508 -4.72063
351 1 Ar 12.5148 12.1903 1.54697 -0.619504 -0.58503 -1.16044 12.5835 28.799 16.5388
317 1 Ar 14.7786 12.1102 0.319073 1.34342 -0.318993 2.1993 16.2063 -21.2549 3.61724
316 1 Ar 12.8837 11.2574 1.66985 -0.625595 0.329761 -0.223067 -6.06358 -8.75368 -16.3352
320 1 Ar 14.6013 13.2253 2.52083 2.4748 0.407094 -0.435325 11.0265 -2.05843 20.443
355 1 Ar 13.2524 12.9987 1.24978 -0.248527 -0.0840047 0.853937 6.77356 4.08858 31.5081
356 1 Ar 13.9465 12.6626 0.142484 -0.390042 -0.38678 -0.23009 -19.5782 10.4648 -4.25297
321 1 Ar 16.0791 12.9416 1.59294 0.215893 -0.727765 0.828993 31.614 -0.659809 -4.07827
357 1 Ar 14.8984 13.1557 0.288446 0.840685 0.592277 0.902611 -12.7301 11.6346 -1.94231
318 1 Ar 15.1449 12.7211 1.19022 0.615092 -2.31516 -0.0996067 2.88591 -20.7649 -2.5894
359 1 Ar 15.2846 13.5298 1.80307 0.962057 0.379224 2.0603 -1.9315 22.6401 3.89962
322 1 Ar 16.6064 13.4413 0.707373 0.809619 -0.973009 -0.785415 3.08808 4.83763 0.499627
328 1 Ar 0.850709 13.5949 1.14589 -0.25744 -0.24247 -0.725415 -26.4825 -16.7539 -13.5358
722 1 Ar 0.332009 14.4761 0.968217 -1.39455 -0.305779 -0.261675 -32.4501 13.2934 17.0012
326 1 Ar 2.12646 14.0397 16.5288 1.21381 -0.927722 0.917212 -4.47066 25.8182 -1.40871
365 1 Ar 0.806583 14.1256 0.166472 -0.337265 0.407032 0.945904 11.1696 -1.5935 -15.8675
726 1 Ar 2.92077 13.9969 0.473475 0.337828 -0.754225 0.365609 -6.6171 -7.61623 7.48498
332 1 Ar 3.57602 13.2446 0.0608492 -0.857318 -0.108104 -2.05834 -21.4157 -1.66394 -3.10328
336 1 Ar 4.22485 14.7069 0.798669 -0.733837 0.64838 -0.0627817 -19.1352 -18.5785 -11.9601
730 1 Ar 4.42346 14.302 1.76747 0.339224 2.11978 -1.26166 6.19856 -32.2755 3.636
334 1 Ar 6.30294 15.1357 0.888875 0.132783 -0.998736 1.70218 2.46988 -14.172 -6.09946
736 1 Ar 5.35238 14.2522 1.22519 0.419811 0.0465294 0.0412682 -5.586 3.34463 -13.8755
740 1 Ar 6.25767 14.1746 0.436334 -0.562186 0.230369 -0.746726 9.01494 1.09895 29.6631
338 1 Ar 7.29154 14.6754 1.27363 0.028031 0.62866 -2.08649 5.40828 7.52841 -23.6537
340 1 Ar 6.67434 15.3311 1.89537 0.364173 1.80273 -0.102227 3.59655 10.9258 -2.15189
379 1 Ar 7.4557 15.1421 0.214504 -0.680311 -0.343752 -1.44699 -2.05953 -21.1151 19.1386
343 1 Ar 9.0443 13.5043 0.994829 0.425847 0.866905 -0.306624 6.74326 13.6075 -4.02055
344 1 Ar 8.58099 15.6753 16.749 -0.293477 -0.544998 -0.410319 2.83546 -1.17694 4.00481
3944 1 Ar 8.07542 14.2085 0.471414 0.131149 -1.28584 0.291511 -2.48008 4.1309 8.86436
342 1 Ar 8.89634 14.6313 1.28237 -0.994287 -1.60371 0.907998 21.5317 7.40989 -4.15951
348 1 Ar 10.5568 14.5418 1.81138 -0.888299 0.111514 -0.633587 -0.345403 -2.01143 0.640346
385 1 Ar 10.5542 14.9824 0.81311 -0.826791 -0.198601 0.164826 11.8962 -3.84344 -3.2178
346 1 Ar 11.6147 14.7311 1.05213 0.790127 -0.506793 1.20474 0.628102 3.51894 3.41185
387 1 Ar 12.3982 14.4375 1.78923 0.805465 -1.23419 -0.496359 27.899 15.7687 3.99042
389 1 Ar 11.5127 14.8755 16.5545 -0.278341 0.419488 0.714666 3.36942 0.666081 4.1324
391 1 Ar 13.3438 14.156 1.44823 0.747566 -0.170925 0.967172 18.6401 -15.9822 12.6145
789 1 Ar 12.4583 15.2491 2.81787 -0.433977 -0.784662 -0.967658 -0.346096 -5.88441 -5.32009
793 1 Ar 13.884 15.1388 1.51457 0.121325 -0.346569 -1.16749 6.55154 2.21975 3.41359
393 1 Ar 13.6786 14.6721 0.567882 -1.98949 0.222662 0.252989 24.7642 7.66482 -17.5035
360 1 Ar 14.2803 13.2693 1.35311 -0.826818 -0.764141 -0.234096 -5.82351 9.83154 -3.73933
395 1 Ar 15.0682 15.3503 1.2978 0.490825 -1.02144 0.938035 -0.638858 -5.73766 -1.71479
324 1 Ar 16.2732 14.0389 1.73285 0.00452161 0.469711 -0.17656 4.56395 -0.690343 0.0736812
358 1 Ar 15.7281 13.638 16.7334 0.467806 0.111523 -0.491987 16.9433 4.75896 -0.512735
758 1 Ar 15.6467 14.3747 0.898495 -1.7852 0.146909 0.0781145 14.4199 -5.42144 -0.981694
3 1 Ar 16.4898 16.4731 0.745179 -0.155064 0.644481 -0.146176 7.95304 -12.0574 -1.51344
363 1 Ar 0.848937 0.0305488 0.970925 0.804281 -0.778986 0.24918 8.15475 -3.90899 10.7825
761 1 Ar 0.943219 16.4793 2.10747 0.143524 1.23257 0.520536 -6.15178 -19.5661 -8.24127
367 1 Ar 1.69246 14.9601 16.7907 0.460561 -0.916767 0.83568 -9.6539 5.87081 20.6916
372 1 Ar 3.17061 16.339 0.1561 0.727855 0.643715 0.26058 -11.4242 -2.36237 1.18234
765 1 Ar 1.14328 15.1125 0.914807 -0.185524 -0.873968 1.00304 8.58532 7.06481 2.26994
762 1 Ar 2.37127 15.6442 0.769518 0.995256 -1.74115 0.941277 -3.1257 8.58692 20.4288
766 1 Ar 2.20137 14.6087 0.964724 0.464187 0.37656 -0.352319 -2.80652 4.32114 0.459707
371 1 Ar 3.32305 15.2654 0.501616 0.768015 -1.24947 -0.922111 6.98467 -8.23206 10.6334
370 1 Ar 4.08601 15.9983 0.54123 -0.136545 -0.0283206 0.467756 13.9086 -6.45455 2.6125
773 1 Ar 4.33406 15.2818 1.66936 2.4258 0.413887 0.0527318 4.08785 36.7599 -2.79778
770 1 Ar 3.47007 15.8542 1.48541 0.88829 -0.8762 1.9062 15.3929 -27.5187 -12.7058
373 1 Ar 5.00555 15.3184 0.711764 0.498482 1.61333 -1.74083 16.1168 13.2219 -11.1019
375 1 Ar 6.20657 16.1383 1.02898 0.584043 0.278962 -0.0116758 4.67883 -7.25348 14.9399
374 1 Ar 5.49654 16.1754 0.154371 -0.249927 0.584004 2.04837 -0.96612 -8.90648 13.9823
376 1 Ar 4.92963 16.4285 1.06288 -0.268737 1.45553 -0.524419 -4.12483 -1.52953 7.58021