ITEM: TIMESTEP
2100
ITEM: NUMBER OF ATOMS
4000
ITEM: BOX BOUNDS pp pp pp
0.0000000000000000e+00 1.6795961913825074e+01
0.0000000000000000e+00 1.6795961913825074e+01
0.0000000000000000e+00 1.6795961913825074e+01
ITEM: ATOMS id type element x y z vx vy vz fx fy fz
4 1 Ar 0.170142 0.815323 0.74963 -0.550152 -0.177243 -0.119454 -9.77857 -16.923 -5.77864
8 1 Ar 1.49083 0.433902 1.00696 -0.128154 0.368781 -0.362237 3.74194 -1.0254 6.83016
7 1 Ar 2.32921 16.7009 0.121817 0.446527 0.531376 -0.85359 7.81972 -25.7673 10.6061
412 1 Ar 2.65514 0.682937 1.36652 -0.12119 0.117331 -0.747107 -12.3851 7.5157 -3.44643
445 1 Ar 1.69283 1.28186 1.64186 -0.629093 1.3039 0.633872 9.5271 1.50018 -1.07329
49 1 Ar 2.09559 0.863256 0.0684649 1.0495 -0.493228 1.22848 -7.68178 28.6345 6.12713
6 1 Ar 3.23399 1.57418 0.759013 0.0713945 0.220676 -0.0364163 -34.9703 11.9079 -4.79208
410 1 Ar 3.95849 0.974567 1.09439 -0.721993 0.9579 0.296766 27.8945 -9.43744 -7.64281
12 1 Ar 4.46977 0.837336 16.7473 0.993589 -0.594371 0.138716 -2.07202 -14.3364 15.2606
11 1 Ar 3.28687 0.638619 0.162663 0.297778 0.0432709 1.09315 0.478382 -5.63572 10.2516
15 1 Ar 5.18518 0.757646 0.891785 0.443142 0.997466 -0.886608 3.02355 -10.866 1.86433
53 1 Ar 5.80481 1.51934 1.67224 1.75467 0.394484 0.900273 -7.16351 11.5175 -4.01257
414 1 Ar 5.70064 1.12856 16.727 1.56506 0.126124 1.86048 -5.4682 -10.4496 23.1714
457 1 Ar 6.297 0.931422 0.839185 -0.290802 0.851592 0.0589706 1.55903 -1.71391 4.31639
55 1 Ar 6.48886 1.81876 0.259252 -1.14641 -0.226111 0.165118 12.4727 0.455425 14.6691
417 1 Ar 7.4383 0.05096 1.6958 0.0684372 1.42386 -0.225737 5.34078 3.97416 -9.42165
459 1 Ar 7.40067 0.629056 0.798136 -0.55903 0.928918 -1.10627 0.388165 2.77458 -7.4332
18 1 Ar 8.52385 0.48206 0.882788 -0.589976 0.601434 -0.199252 5.63918 -14.5574 -4.63613
24 1 Ar 9.6773 0.426487 1.27864 1.50883 1.26352 0.327428 5.36373 -12.4987 13.336
461 1 Ar 10.1584 1.42112 1.44282 -0.0203629 0.182003 -0.200977 -19.7957 25.9222 -4.78471
28 1 Ar 10.7897 0.380814 1.12681 -0.339217 0.0698904 -1.51226 -25.7284 8.42261 8.04678
68 1 Ar 9.44212 0.853503 0.378513 0.0747567 0.246743 -0.797924 8.16866 -1.15288 -10.0264
27 1 Ar 11.3268 1.31999 1.02098 0.698939 -0.216628 -0.114599 25.7654 5.21351 21.5707
26 1 Ar 10.4807 1.17548 0.513462 1.44352 0.919233 -0.0506336 -20.4917 -5.57733 -21.4339
69 1 Ar 11.3482 1.38649 16.7331 -0.625064 -1.4903 -1.23378 -12.6254 35.5493 -6.64837
32 1 Ar 12.5814 1.32297 0.47705 -0.190568 -0.169699 -1.72735 3.07622 2.06713 -5.58216
33 1 Ar 12.4197 16.699 1.08388 -0.0846426 -0.216431 -2.24197 -19.3723 -11.4447 -39.4158
30 1 Ar 13.4338 0.497817 1.00748 -0.831287 -0.59272 0.940029 19.2813 -19.0856 -3.9284
34 1 Ar 13.8886 1.02119 0.281024 -2.62442 0.59051 -0.0466653 8.25419 33.8835 -16.1648
40 1 Ar 14.9864 0.0103224 0.489053 0.21843 -0.871227 -0.106669 -10.2727 -0.242587 14.3654
438 1 Ar 15.2867 0.109298 1.5348 -0.394906 0.59192 -1.15505 -11.3148 11.4315 8.84652
434 1 Ar 14.4787 0.89621 1.16858 1.05311 -0.073601 0.663825 10.1322 -19.4833 -3.05883
79 1 Ar 15.9735 0.313812 0.836306 -0.339808 -2.0578 -0.608159 21.2067 20.9347 18.8925
477 1 Ar 15.1175 1.35411 0.382427 0.750966 2.25872 0.544876 -2.11279 4.22233 6.80885
41 1 Ar 16.1845 1.23914 0.151647 -0.369167 -0.0985067 0.69144 -23.1013 -25.3748 -18.2885
43 1 Ar 0.0537146 1.94298 0.32684 0.497409 0.0369724 -1.03472 18.082 18.7809 15.2429
47 1 Ar 0.995123 1.40384 0.706718 0.765762 -1.45307 0.816375 16.0657 9.65144 0.361627
83 1 Ar 0.638773 2.95871 0.418957 1.47915 1.13176 0.384372 -10.7263 -14.5252 -14.2087
402 1 Ar 0.249904 1.54413 1.50236 -1.15657 -0.299171 0.325357 2.12211 10.1021 3.30806
442 1 Ar 1.0101 2.5159 1.38097 0.254035 -0.393257 1.20801 -3.85344 -5.47774 0.845789
449 1 Ar 2.03907 1.83834 0.818687 -1.43799 0.375161 2.57084 1.08387 3.55992 -14.9847
48 1 Ar 1.79057 2.87374 0.239899 1.06115 -0.740968 0.332578 10.1436 10.3845 17.028
485 1 Ar 2.02278 2.86202 1.2684 -0.861661 -0.627665 -1.40371 2.55438 -16.8918 -3.43339
446 1 Ar 3.09667 2.75403 1.04924 -0.306889 0.185469 -0.0605075 9.65205 -8.8317 -12.501
50 1 Ar 4.17128 1.99988 0.590171 -0.395985 -0.352047 -0.895658 0.938567 0.989485 -0.636889
529 1 Ar 4.48654 2.8515 1.13017 -1.02425 -1.07655 -0.689847 -20.0624 6.13664 9.43266
490 1 Ar 5.01727 2.65232 0.251125 -0.609678 1.06841 0.34026 6.1345 1.56455 -19.9144
493 1 Ar 5.18831 1.7452 0.68358 1.77344 0.401898 -1.08744 18.6888 2.76433 -10.4308
494 1 Ar 6.57383 2.94265 16.7636 1.08449 -1.08721 -0.290367 0.18016 -5.12927 -27.1878
456 1 Ar 5.40795 2.70657 1.53832 1.43418 0.715307 0.0398733 17.948 0.362511 12.2717
60 1 Ar 7.37888 2.40645 0.42083 1.61254 -0.852033 0.753306 4.11961 7.84996 -4.05449
95 1 Ar 6.39215 2.35788 1.33775 1.44157 -0.506504 0.252858 9.53758 -4.01239 -16.9032
454 1 Ar 7.20155 1.68664 1.12191 0.312505 1.51571 -0.0718144 -4.7857 -14.9194 10.1261
462 1 Ar 9.2505 1.82973 0.548217 0.206078 0.0965396 -0.11227 -3.8183 15.3301 5.76059
99 1 Ar 8.62084 2.51346 1.14261 0.674962 -0.538644 0.109553 -0.584496 2.36046 -2.60116
458 1 Ar 8.19183 1.44593 0.758488 -0.260904 -0.774368 0.534485 1.10254 12.1459 0.279626
101 1 Ar 9.15222 2.92241 0.323018 0.731878 -0.236049 0.757693 4.15208 4.92941 -2.01574
103 1 Ar 10.2035 3.12379 0.6111 0.459581 1.00573 0.173429 -8.07799 -9.01972 33.6241
464 1 Ar 9.67681 2.65673 1.56688 -0.231846 -0.364363 -1.01968 -1.55754 -21.9918 -20.7874
107 1 Ar 10.6722 2.23676 0.874981 0.488402 -0.0933455 0.876316 13.39 -6.73537 14.9195
72 1 Ar 11.6737 2.74962 1.33758 -1.37193 -0.537943 -2.15113 -9.24692 12.4214 -4.61431
109 1 Ar 11.9133 2.16974 0.53441 0.577974 0.206985 0.689277 -0.56326 -4.53435 -15.7907
73 1 Ar 13.3411 2.82556 0.825772 1.16708 -1.38196 -0.290817 -0.839918 -1.61488 -1.98341
36 1 Ar 14.0199 1.81366 1.25847 0.608679 -0.475366 -0.72744 -11.9299 6.19672 -6.66388
3715 1 Ar 14.5099 2.98537 1.26672 1.37479 -0.631219 0.118542 9.78847 -2.63314 -0.570128
3714 1 Ar 14.4746 2.53098 0.315845 0.41468 0.188472 -2.72725 -4.42897 -9.37342 -4.54845
44 1 Ar 16.4818 2.43702 1.36207 -0.92806 0.533117 1.5858 -11.3766 5.18301 -20.594
117 1 Ar 15.6772 3.12449 1.0855 0.94839 -0.0571921 -0.31113 -7.09621 -0.240808 4.05839
441 1 Ar 16.0497 1.43171 1.17961 -1.26562 -0.16729 0.680828 -7.81729 -2.13628 -9.36985
78 1 Ar 15.7544 2.27017 0.421013 -1.19885 0.328287 -1.07521 0.691882 -2.09794 -3.13024
525 1 Ar 1.14409 3.57815 1.03182 0.832689 -0.274091 0.566602 18.6142 2.82193 7.65701
88 1 Ar 1.69262 3.92 0.0785503 -0.810511 -0.687088 0.377233 -2.69658 8.82205 22.8651
486 1 Ar 2.62676 3.58377 0.544125 -0.321469 1.01821 -1.13561 7.69479 2.29674 0.260981
524 1 Ar 2.13424 4.69232 0.875502 0.851024 1.83101 0.739071 0.346276 14.8891 -9.65254
489 1 Ar 3.8035 3.8612 0.667635 2.53514 -0.833458 2.05089 -17.2035 4.14142 -8.04739
131 1 Ar 4.30307 4.61885 1.34797 -0.692102 -0.316603 -1.47799 -9.88456 -6.76614 -0.0756542
500 1 Ar 5.91487 3.07638 0.725243 -0.0223857 -0.516996 -1.57781 -3.36148 -5.80199 -11.3037
136 1 Ar 4.78833 3.63832 0.491949 1.13682 0.43699 -0.884793 5.31462 10.2251 5.8963
533 1 Ar 6.16463 4.05838 0.426865 0.187222 -0.445886 1.22979 -5.34706 -9.64687 0.0525083
536 1 Ar 5.47871 3.76397 1.33475 0.969109 -1.70994 0.612475 -9.58407 9.54984 4.28427
537 1 Ar 7.02305 3.38844 0.769137 1.16398 -0.615845 0.625724 -2.42053 18.4913 2.67002
898 1 Ar 8.53412 3.60617 1.3842 -1.50417 -0.719145 0.723492 4.88186 -13.9669 8.99482
94 1 Ar 8.04377 3.28075 0.484443 1.55659 0.481235 0.477439 6.90287 -2.62761 -3.53618
108 1 Ar 10.367 4.23697 1.39504 -0.932035 1.66425 -0.0557284 -13.971 5.39155 -22.4498
147 1 Ar 9.57534 4.71178 0.718037 0.886069 1.0694 -1.38692 3.5249 14.7573 8.96596
501 1 Ar 9.50475 3.67043 1.08941 0.326187 1.23905 -0.682629 1.16025 -2.06023 -6.60544
3747 1 Ar 10.49 4.08271 0.229634 -0.298509 -0.645886 1.88482 13.8206 7.71784 2.78372
112 1 Ar 11.7772 4.24398 0.835046 0.609855 0.613315 -0.0756096 24.3023 -15.5272 39.7355
106 1 Ar 11.2028 3.15222 0.492167 -1.17546 0.11594 0.505867 18.2424 6.83507 -11.8092
110 1 Ar 12.3459 3.21434 0.337687 -0.539283 0.335842 -0.844153 -5.99865 -0.0863711 4.70441
113 1 Ar 12.5712 4.31939 0.0239735 0.429242 -0.855747 -0.929138 18.9073 -8.01742 2.31879
513 1 Ar 12.9042 3.88761 0.986352 -0.978647 1.13395 -1.3053 4.1965 0.247502 -7.03532
115 1 Ar 13.9266 3.74742 0.590749 -0.273546 -0.377061 -0.633396 -5.52315 -5.62855 -3.55807
514 1 Ar 14.666 4.10953 1.23172 0.655953 -0.110173 0.26015 9.47411 -2.89998 -8.1588
114 1 Ar 14.9762 3.46345 0.227206 0.794364 -0.837688 1.83254 10.9471 9.7758 18.3105
120 1 Ar 15.9732 4.21942 1.31775 -0.278918 0.306836 0.91693 -24.5692 -16.6361 11.3914
118 1 Ar 15.5749 4.36927 0.00440184 -0.194908 0.741342 -1.43428 -16.318 20.4875 -5.38159
119 1 Ar 16.2027 3.68213 0.364145 -0.526577 -1.37698 0.194982 15.0148 -15.1701 1.01646
123 1 Ar 0.963187 4.56656 0.788729 -0.702899 0.806948 -1.23116 10.9963 1.94521 2.43337
163 1 Ar 0.599078 5.36769 1.46737 1.95353 -1.06436 0.310237 17.3441 1.85203 -9.90362
565 1 Ar 1.57048 5.70058 1.17681 -0.397849 0.619325 -0.431365 3.29422 -5.70379 -4.01208
3724 1 Ar 0.816954 5.40436 0.178435 0.197265 -0.459392 0.268999 -14.5801 2.94258 6.73566
92 1 Ar 3.15036 4.40571 -0.0354248 -0.0633507 0.0208234 -1.65466 -0.676566 1.95143 -3.15115
128 1 Ar 2.59503 5.71139 0.804067 0.352447 0.598414 0.138436 -5.13428 -8.4051 -2.81293
133 1 Ar 4.40038 4.90409 0.236985 -0.14151 -0.586605 1.69702 -0.285517 -0.492568 0.486241
526 1 Ar 3.40166 5.01175 0.908659 0.46254 0.638932 -1.03945 1.62805 3.19504 -5.73836
173 1 Ar 3.78194 6.05099 0.315362 0.103799 -0.722231 0.0147317 -5.17367 -1.68464 2.28077
575 1 Ar 4.82098 5.52004 1.46804 2.2887 -0.372323 0.0593606 -12.9302 18.338 -15.1233
3736 1 Ar 5.38542 5.63708 0.289033 1.23346 0.314825 0.0478222 -41.7864 20.332 2.34192
573 1 Ar 5.25047 4.71256 0.933274 0.438357 0.502538 -0.44306 14.4196 -2.40794 -11.6788
134 1 Ar 6.37303 5.96556 0.280317 0.537124 0.537941 1.23815 16.6748 -1.32072 -14.6117
534 1 Ar 7.03548 4.5225 0.739498 0.581524 -0.968245 1.30632 -2.59525 12.8588 -24.6315
535 1 Ar 5.99402 5.50574 1.10644 -0.41298 -1.0269 0.537091 1.90366 -5.25733 26.4052
539 1 Ar 7.51918 5.66143 1.24859 -0.657384 1.02346 0.241214 4.38932 -26.4036 5.70093
540 1 Ar 7.89859 4.36532 1.18725 -1.01168 -0.70101 2.12931 1.26756 19.598 18.0481
139 1 Ar 7.84935 5.25999 0.304509 0.177645 0.255485 -0.308138 -3.85692 -0.334874 -11.6786
144 1 Ar 8.56396 4.27985 0.446559 0.459833 -2.45921 -1.80025 10.4872 -1.39044 -18.1761
541 1 Ar 8.60089 5.23944 1.00693 -0.0510997 -2.43697 -0.0563607 12.6345 -3.99775 11.4709
145 1 Ar 9.7254 5.28153 16.5356 -1.04833 -0.705234 -0.192693 5.46472 -3.685 7.81857
151 1 Ar 10.6118 5.61217 0.444249 1.97661 0.0410146 -0.534745 -17.2716 20.2101 -31.548
544 1 Ar 9.6524 5.82819 1.40316 -1.51969 0.553709 1.4462 9.71725 -5.70162 27.338
510 1 Ar 11.0847 4.9465 1.00022 0.901313 0.56161 0.625859 -1.70707 -4.08956 13.0242
153 1 Ar 12.0728 5.21232 0.17113 0.426846 0.402783 0.061113 -26.8257 -10.5448 -8.84765
591 1 Ar 11.7514 5.94042 0.894255 -1.1388 0.871957 0.557608 -3.82236 -8.16934 -2.36016
155 1 Ar 13.5068 4.93406 0.636763 0.238102 -0.827951 -1.06784 1.51416 3.00005 -5.81792
550 1 Ar 12.7989 5.85053 0.402909 0.731879 -1.35609 -1.11526 10.8769 26.9325 25.7036
553 1 Ar 12.5485 4.96176 1.17609 0.961239 0.795038 -0.756671 14.2527 32.9123 -25.7419
159 1 Ar 14.5471 4.63767 0.342114 0.664684 -0.824127 -1.4998 -6.43124 2.93142 -13.2549
160 1 Ar 15.1146 6.21678 0.285339 -0.100995 1.29056 -1.25793 43.3584 26.9639 -14.1385
593 1 Ar 14.3218 5.75072 0.553403 1.61307 -0.421845 -0.433074 -40.554 -26.8016 21.0764
200 1 Ar 15.2736 5.12506 0.957111 0.87292 0.444378 -0.511787 13.1983 -0.263157 -7.74961
84 1 Ar 16.7149 4.6857 0.859836 -0.637052 0.369569 0.637314 19.1992 3.0804 -21.9485
157 1 Ar 16.2844 5.64851 0.711303 -0.0699248 0.115075 -0.0275909 -1.57887 -1.44082 -1.68712
522 1 Ar 1.7955 6.2088 0.111545 0.404726 -0.795072 -1.20012 0.340168 -5.14263 3.43683
162 1 Ar 1.03167 7.00482 0.157492 0.263112 -0.59152 -0.996943 6.13791 -19.856 -13.148
561 1 Ar 0.45139 6.28377 0.698225 0.780247 0.636324 -0.151255 0.26254 -8.08879 -11.3445
605 1 Ar 0.553653 7.31999 1.01728 -0.267037 -0.7682 -0.329335 14.267 6.43611 -10.9458
167 1 Ar 2.63933 6.72228 0.562396 -0.234687 0.365039 -0.316633 21.6615 -8.3968 -16.1205
566 1 Ar 2.14011 6.60321 1.42336 1.0272 0.266478 -1.01486 -6.26102 1.2932 14.6006
172 1 Ar 1.84131 7.34271 0.689099 1.41317 0.657368 -0.752207 9.23217 2.6008 23.559
570 1 Ar 2.86653 7.4528 1.32612 -0.0764909 -0.48239 1.15703 27.1498 -30.0573 -26.1059
569 1 Ar 3.39417 6.20092 1.32387 0.861247 0.369684 0.516073 -2.50141 12.3024 2.54628
171 1 Ar 3.58855 7.21061 0.467862 -0.0223276 -0.937934 -0.436053 11.0334 -9.60561 3.31483
170 1 Ar 4.66782 6.61787 0.229705 -0.0855049 -0.12652 -1.21924 -3.61796 -3.44699 -0.87402
175 1 Ar 5.23614 7.48604 0.168165 -0.502137 0.111047 0.066465 -5.98522 4.81672 0.00165338
577 1 Ar 5.40925 6.55494 0.943353 0.181574 0.428661 0.794774 12.1961 1.27738 11.9059
177 1 Ar 6.44931 6.9954 0.237247 0.307137 0.329999 -0.20307 3.42647 8.99496 2.81031
538 1 Ar 7.3489 6.50658 0.7575 -0.0596729 -0.621021 0.482343 6.35968 25.3519 -14.402
574 1 Ar 6.50591 6.80699 1.28246 -0.67968 0.314635 -0.248935 -4.54915 4.32954 5.56573
179 1 Ar 8.15433 7.24385 0.205847 -0.0363806 0.0618975 1.30855 -15.0446 -2.83856 18.6733
183 1 Ar 8.4517 6.29511 1.04636 -1.3152 -1.16313 -0.660353 -4.70153 -7.4759 -2.26725
148 1 Ar 9.35357 5.93815 0.468958 1.74974 -0.500876 0.640338 -3.55356 7.58672 -18.5355
185 1 Ar 10.1933 6.85511 16.5512 1.68395 -1.25946 -0.086564 -4.60512 25.6179 6.89857
582 1 Ar 10.5371 7.6292 0.925737 0.84766 0.950223 -0.0252494 16.7332 19.4127 8.94855
585 1 Ar 10.051 6.76806 0.788078 -0.729806 -0.128597 0.265204 -21.5115 -24.7655 10.2493
142 1 Ar 9.04726 7.14672 0.937606 -0.0784956 1.0008 -5.97358e-05 7.1172 -17.2169 -16.8236
546 1 Ar 11.066 6.72766 0.597386 0.581575 -1.35511 0.267297 2.39926 -34.69 23.2326
187 1 Ar 11.1046 7.49551 16.8009 0.0883598 -0.215672 0.259004 2.67233 27.4278 -16.1778
586 1 Ar 11.627 7.49614 1.3057 -0.077964 -0.140222 0.449991 -5.70888 19.3277 -12.1447
191 1 Ar 12.1043 6.92741 0.545848 -0.115419 -0.64802 -0.32055 5.06108 -16.8865 -6.26501
590 1 Ar 13.2593 6.89218 0.869893 0.320271 0.264288 0.178118 6.39025 4.07197 1.60576
193 1 Ar 13.6019 6.44727 16.7862 0.153978 -1.00774 0.796201 3.14451 -4.26247 -9.5082
3760 1 Ar 14.4132 7.08721 0.47485 -1.27424 -0.229337 -0.444136 -3.57777 -2.20576 0.603537
158 1 Ar 16.3948 6.54339 1.24185 -1.43029 -0.639681 -0.0996934 -20.192 -4.18787 -15.3149
164 1 Ar 16.3853 7.59361 0.736485 -0.14029 -0.379717 0.268457 5.70029 7.99432 -1.90297
199 1 Ar 15.4459 7.14844 0.830264 -0.146033 -1.30895 -2.0638 6.52792 -59.0833 15.0248
3799 1 Ar 16.2657 6.69587 0.158365 -1.3139 -1.13293 -0.226221 -45.0941 -6.72395 24.7691
208 1 Ar 0.996957 9.20292 0.511592 1.57674 -0.490008 1.03993 -18.1975 5.02448 -7.33999
608 1 Ar 1.3237 8.33715 1.09682 1.48382 -0.606441 1.03483 1.30496 0.376751 16.888
609 1 Ar 2.44161 8.33378 0.982177 -0.259417 0.63896 1.02827 -20.2185 16.1401 -13.3376
211 1 Ar 3.89462 8.94402 1.61276 0.618189 0.258444 -0.529079 -13.8144 -8.91935 3.67692
210 1 Ar 3.44882 8.37528 0.578521 0.0452395 -0.469648 -0.279888 -22.3537 26.0006 -12.4281
176 1 Ar 4.26799 7.95544 0.115482 -1.26113 0.437409 -0.584071 2.24244 -24.6097 -0.865972
610 1 Ar 3.95158 7.93831 1.29732 1.0716 0.653837 -1.55832 17.0103 -17.2182 14.9661
214 1 Ar 5.7439 8.63719 0.449394 1.10855 -2.41265 -0.0363391 -0.189074 15.0985 -4.81797
613 1 Ar 5.13568 7.66766 1.21408 1.25003 -0.674599 0.842997 -39.9775 -4.31733 20.3203
253 1 Ar 5.65596 8.50035 1.63537 -0.55936 1.25157 1.31423 4.1343 1.2143 -0.741385
651 1 Ar 4.68712 8.63594 0.725575 -0.529981 0.357117 -0.345416 5.19143 14.4478 15.8653
180 1 Ar 7.32105 7.78813 0.636857 -0.134322 0.355033 0.735217 -15.7414 -9.5003 9.4025
174 1 Ar 6.02271 7.73388 0.819667 -1.30748 -1.36101 -0.191742 30.6863 -12.6694 -8.9636
215 1 Ar 6.83568 8.97462 0.442782 0.73787 1.6104 0.50788 6.23735 -1.31042 5.57357
219 1 Ar 7.98308 8.34092 0.092729 0.194759 -0.0171079 -0.746059 7.19659 0.956591 -1.01192
223 1 Ar 8.81671 7.9901 1.40638 -0.287885 0.343125 -0.537059 -48.6232 2.28228 -20.637
618 1 Ar 7.75332 8.62843 1.33426 0.00881641 -0.277563 -0.527776 5.60041 -4.72024 -7.08457
3828 1 Ar 8.70495 8.92782 0.727914 -0.37413 -0.0305365 -0.227677 -4.83203 1.04485 -1.17662
225 1 Ar 9.17276 8.07788 0.224762 -1.46008 0.86049 -0.0702361 5.2885 5.99869 10.2302
625 1 Ar 9.95689 8.56763 1.17776 0.0194802 0.464265 -0.33359 4.78926 -49.3089 -65.3573
3827 1 Ar 9.69002 9.11257 0.211323 -0.244937 0.0978888 -0.347154 2.7148 1.95158 5.21516
188 1 Ar 10.4993 8.38009 0.200043 -0.417233 0.0304907 0.225522 -5.12343 4.87603 -9.90206
227 1 Ar 10.844 9.1837 0.81015 -0.771207 1.13394 -0.37531 13.0799 -1.12102 -6.13191
192 1 Ar 11.5495 8.3705 0.495563 -1.50504 0.0594792 -0.268878 3.19315 -0.963892 4.78205
669 1 Ar 11.1076 8.44445 1.55766 0.908468 -0.561713 -1.72353 -7.56945 -1.62418 2.22358
190 1 Ar 12.495 7.86076 0.68463 0.647185 -0.783938 0.402546 -0.720576 4.12811 4.53483
231 1 Ar 13.3117 8.5772 1.20021 1.18255 -1.11169 -1.19506 -44.5945 -17.0279 -18.2782
3796 1 Ar 12.7223 8.5873 0.0324875 0.392984 0.42519 0.566617 8.32716 12.649 -13.783
195 1 Ar 14.5102 8.18083 0.474065 -1.12551 -0.0151218 1.94326 3.73949 -3.54082 15.0456
194 1 Ar 13.9005 9.04992 0.386397 1.1894 0.886289 1.17024 -3.18799 -2.06982 -7.98064
636 1 Ar 14.1879 8.94485 1.42935 0.221156 0.118619 -0.820002 54.5711 9.10963 -6.83802
3795 1 Ar 13.8869 7.71925 1.32894 -0.390759 0.0969932 0.438503 19.51 -1.07411 13.9415
201 1 Ar 0.0725853 8.62446 0.724192 1.08477 0.112976 -0.258654 22.3466 -5.05753 -19.6542
197 1 Ar 15.4895 8.11905 0.913504 -0.151248 -0.391863 -0.29329 0.095964 40.6965 -4.80278
204 1 Ar 0.417914 9.69978 1.26904 -0.807596 1.17573 -0.248203 -19.8849 4.05964 -13.0257
243 1 Ar 1.34213 10.2349 1.16181 0.140415 0.465302 0.443592 15.6758 -9.40433 2.60746
241 1 Ar 0.388121 10.1789 0.0774241 -1.35796 -0.106377 -0.174786 4.19029 -9.8081 1.03731
212 1 Ar 2.77722 9.49499 0.485979 -0.111914 1.25067 0.374869 -1.76275 -0.766739 -3.03425
245 1 Ar 1.6944 10.0215 0.102243 2.32753 -0.709101 0.205336 -9.43664 -12.8667 12.8763
247 1 Ar 2.49057 10.468 1.14868 -0.378498 0.936104 0.0511407 -1.11351 -21.8025 5.69852
249 1 Ar 2.54136 10.5678 0.149819 -0.940219 0.299002 -0.203969 13.47 12.6968 -25.2565
606 1 Ar 1.8665 9.31216 1.05803 -0.154014 -0.301312 -0.105614 4.16565 -1.58884 1.44842
612 1 Ar 3.86776 9.43956 0.698735 1.22324 0.153561 -0.947011 3.21365 3.4251 -9.27933
649 1 Ar 3.43081 10.4371 0.683999 0.316402 0.677087 0.237102 17.5506 3.29006 1.45214
653 1 Ar 5.40832 9.62499 1.01964 -0.295726 0.789709 -0.553518 -4.59659 -1.45211 -4.31349
689 1 Ar 4.79549 10.6016 1.14918 -0.220174 -0.237293 1.23021 -0.519719 3.04424 12.9644
3856 1 Ar 4.76495 10.1185 0.196052 -0.0646586 0.869367 -0.757245 -8.74188 -2.26096 3.91521
255 1 Ar 6.40003 9.94059 0.685061 0.237607 0.436884 1.21365 -6.91429 -0.639245 7.99129
218 1 Ar 7.80718 9.65832 0.840537 -0.198708 0.745661 1.09985 -0.992376 -8.85228 0.219691
222 1 Ar 8.91716 9.12992 16.2477 0.161962 -0.520124 -0.430111 4.5484 21.9623 11.5833
263 1 Ar 8.57287 10.3375 1.56675 -0.459795 -0.576285 -0.352814 3.19184 -10.6347 -0.801107
3859 1 Ar 7.8474 10.6905 0.686907 -0.19617 1.2817 0.176351 32.538 -8.58906 19.2988
265 1 Ar 8.83196 10.1473 0.50641 0.21564 -0.17601 0.235505 2.43793 -2.05146 -1.48325
267 1 Ar 10.2254 10.0059 0.710078 -0.216158 -0.30225 0.286527 -4.10248 -7.07867 18.9529
665 1 Ar 9.5872 10.6869 1.42589 -0.510459 -1.38846 0.504638 -12.3023 -7.84799 -4.92943
232 1 Ar 11.8166 9.34053 1.41503 0.157198 -0.316576 -0.00948569 5.80252 6.35069 -16.8393
269 1 Ar 11.1937 10.6965 0.474644 -0.900087 -0.211258 -0.449541 -3.6353 -0.863603 -12.6613
272 1 Ar 12.0842 10.3385 1.04627 -1.58128 -0.0107089 -0.80919 5.38737 -3.88704 -3.24825
3836 1 Ar 12.0017 9.35041 0.212266 -1.81639 0.0437554 -0.124077 -4.88706 0.421858 7.97311
311 1 Ar 13.1459 10.676 0.624542 0.0648048 -0.405009 -0.398879 16.4561 7.06082 12.315
230 1 Ar 13.0292 9.54994 0.765787 0.362013 1.85113 0.186193 -8.45475 2.03908 -4.37361
234 1 Ar 15.3973 10.3992 1.01871 1.03899 0.600779 0.348487 1.08958 -11.3353 11.8899
237 1 Ar 15.0109 9.29884 0.499737 -0.1624 -1.13364 -1.19834 1.42914 -9.20941 3.58571
233 1 Ar 14.0993 9.96574 0.943275 0.0803962 1.66421 0.971666 3.30846 1.3806 -7.66798
279 1 Ar 16.5408 10.694 0.99614 -0.0487138 0.256109 -0.500192 -0.0545806 -33.8685 21.2068
238 1 Ar 16.2647 9.60125 0.544684 0.926399 0.547742 -0.607939 0.165239 -1.98537 3.87434
244 1 Ar 0.844662 11.045 0.879012 0.802794 -1.52987 0.854283 -10.7488 16.3846 3.60497
282 1 Ar 1.03615 11.9646 0.353656 0.73982 0.765533 1.47966 2.69116 8.76001 4.83098
248 1 Ar 1.92837 11.2641 0.727647 1.01714 -1.87339 0.0711419 -6.15083 7.31708 5.26873
285 1 Ar 2.23391 12.3492 0.524821 -1.41692 0.189632 -0.136739 -0.528739 4.8454 3.65754
287 1 Ar 2.98521 11.4815 0.759754 -0.354184 0.378289 0.892919 -15.7089 -5.87257 -2.21663
331 1 Ar 3.93509 11.5814 1.13055 0.550149 0.672538 -0.00341869 0.837591 -17.1545 -0.655028
250 1 Ar 5.79872 10.987 1.05065 0.511561 -0.595346 0.946295 4.54455 -1.64131 -5.19783
291 1 Ar 4.80432 11.2168 0.313509 0.18042 0.79686 -0.478523 -5.87413 6.53255 -7.60114
693 1 Ar 5.577 11.9221 0.474072 -0.226497 0.373865 -0.13332 12.3535 -6.28734 -3.6261
256 1 Ar 6.672 11.9526 0.190439 -0.544788 -0.0220569 0.26711 -10.3439 -33.6683 2.44253
297 1 Ar 6.88608 10.9103 0.825948 -0.157227 1.31988 -0.917842 -15.1979 0.737783 -25.7266
654 1 Ar 6.40375 12.0857 1.32969 -1.74713 0.44651 1.23286 -14.1815 4.05075 -19.748
301 1 Ar 7.42912 11.8241 1.07593 0.303776 1.20771 -0.0134651 5.39638 -7.15037 -2.0444
662 1 Ar 8.60386 11.3819 1.62061 -0.400215 0.269319 1.46874 -4.01294 3.50072 -7.0989
3864 1 Ar 8.57749 11.535 0.447951 -0.993431 0.527363 -0.690712 -0.0968389 -7.16811 -0.249011
266 1 Ar 9.47918 11.8187 1.21204 0.476389 0.523431 1.60819 -0.893406 -7.28842 7.70116
666 1 Ar 9.79494 10.8303 0.307731 -0.662434 1.16317 -0.466432 -3.11078 12.9091 -1.89289
306 1 Ar 10.1883 12.0147 0.493974 0.479458 -1.63668 -0.126334 8.78665 -0.742619 -15.175
707 1 Ar 10.4551 11.2395 1.41606 1.07188 0.148325 0.341896 -31.9074 -3.75137 -28.6792
309 1 Ar 10.853 12.4058 1.25036 0.195636 0.237312 1.47082 4.08585 -5.90386 6.33839
709 1 Ar 11.4366 11.2127 1.47348 -1.25716 0.746173 1.50844 59.5682 67.9404 -1.35501
3912 1 Ar 11.3127 11.6898 0.222805 1.13767 1.40336 -0.676145 -14.7767 27.3919 5.16994
270 1 Ar 12.2572 11.3181 0.366397 -0.74978 0.102366 1.14494 -1.75268 -24.6801 16.3475
316 1 Ar 12.6322 11.0791 1.55765 -0.977823 -0.65115 0.843395 -4.16866 -1.3735 -18.1775
313 1 Ar 14.0196 11.144 0.0863858 -0.213718 0.965261 -0.090249 -12.0929 -41.9311 9.89432
315 1 Ar 14.6345 11.286 1.36627 -0.380098 0.228046 -0.701737 -45.5595 -15.7853 3.97316
317 1 Ar 14.5395 11.9509 0.376473 -0.20042 0.53639 0.355749 4.86651 21.7639 21.659
353 1 Ar 13.763 11.8398 1.08148 -1.61445 -0.733115 -0.819057 -9.37541 -0.702954 1.80777
275 1 Ar 15.5685 11.4155 1.21307 -0.400343 -0.694461 -1.46881 24.1164 2.47104 5.78487
319 1 Ar 16.4767 11.6857 0.978572 0.959201 -0.586336 0.939695 42.6275 12.211 15.3378
284 1 Ar 0.266095 12.6066 1.0991 0.624139 -0.301063 -0.0810322 0.00267186 -9.74571 7.12432
682 1 Ar 1.47198 12.7942 1.17159 -0.170664 -0.459132 -2.77067 8.37145 -6.55705 -5.19269
3923 1 Ar 0.852707 13.1181 0.350965 0.0995024 -0.201787 0.439079 -7.54056 0.83924 -7.91675
725 1 Ar 1.84982 13.4417 0.123001 -0.149444 -1.51803 0.271489 6.6648 -2.68753 5.16491
727 1 Ar 2.90942 13.2476 1.39567 0.310458 -1.98626 -0.251785 -10.3143 -1.34155 -19.3462
686 1 Ar 3.3821 12.4848 0.732396 0.888214 -0.346538 -0.0701265 -22.8109 -21.7542 19.3208
332 1 Ar 3.95113 13.0911 0.22827 0.0792648 -1.55073 -0.706746 11.641 24.1997 -20.1354
327 1 Ar 4.80941 12.5569 0.0715243 -0.217315 0.700989 -0.923611 2.51933 -0.527746 1.9724
733 1 Ar 5.42619 12.8314 0.965883 0.134716 -0.583559 1.61255 13.4831 23.8776 1.28973
696 1 Ar 4.8005 12.0956 1.29153 -2.11329 -0.51985 0.0824583 0.579095 -0.0560977 3.27156
690 1 Ar 4.43472 13.2655 1.81652 -0.735553 -0.292061 -0.596893 62.6696 -15.1321 -22.2748
735 1 Ar 5.44348 13.4667 2.16887 -1.71549 -0.386485 0.0989487 -6.85605 3.86833 -16.337
694 1 Ar 6.74964 12.8861 0.607925 1.42432 -0.0171056 0.0206274 -14.6495 20.2978 3.72357
300 1 Ar 7.55903 12.457 0.0749967 0.509776 -0.431561 -0.0854856 21.0361 9.33255 14.5508
339 1 Ar 6.92827 13.907 1.22043 -0.232262 0.586035 1.13335 1.88655 1.71331 1.83868
295 1 Ar 7.42643 12.8382 1.37735 -0.466474 0.159368 -0.18935 10.3946 7.03344 13.9628
302 1 Ar 8.09137 13.2668 0.510772 -1.01683 -1.00338 2.85095 6.56711 2.69993 8.1479
343 1 Ar 8.93911 13.3868 1.29948 0.0114171 0.31138 -0.933124 1.60905 -7.27131 -7.03978
3903 1 Ar 8.40575 12.3954 1.05889 -0.288563 -0.0325283 0.204389 -15.1835 -5.11618 18.6648
305 1 Ar 10.2042 13.4369 0.141543 -0.0740405 0.479467 -0.470532 -16.76 -2.39654 -0.0916433
308 1 Ar 9.91795 12.8663 1.25698 0.369777 -0.839388 -0.678027 -3.65476 6.85985 10.4533
3905 1 Ar 9.24662 12.6275 0.555313 -0.532284 -0.466481 0.0814446 6.09668 3.92622 -25.184
312 1 Ar 11.87 12.6123 1.056 -0.631054 1.79771 0.311027 -9.39394 2.56974 -7.51053
307 1 Ar 10.6904 13.5229 1.05269 -2.10243 1.36354 0.772812 23.3078 6.92619 -2.17391
3947 1 Ar 11.0304 12.8017 0.139122 0.146229 0.686994 -0.560688 10.5333 -7.52972 5.78841
310 1 Ar 12.7137 12.1846 0.492597 1.61563 -0.45001 0.10141 19.4269 18.8293 16.0827
352 1 Ar 12.5238 13.4487 1.25898 0.436815 -1.12506 0.109746 2.68655 0.8454 -5.26935
355 1 Ar 13.3639 12.7779 1.45963 -0.903279 0.136858 1.2372 -10.2181 -1.02402 10.3474
356 1 Ar 13.9765 12.9049 0.612067 0.370071 -0.193233 -0.623643 1.50568 -8.26182 -1.56542
357 1 Ar 15.1937 13.1944 0.740222 -0.41088 -0.305545 0.653459 -5.11519 10.6268 22.1615
318 1 Ar 14.954 12.2999 1.38191 0.92523 0.609163 -0.670167 6.24764 10.447 -6.70664
360 1 Ar 14.2755 13.3194 1.62638 -0.00352225 -0.431761 0.436757 -20.3428 -13.5223 -10.4843
322 1 Ar 16.4694 13.271 0.538891 1.06895 -0.147985 0.296243 -7.42096 -16.9452 -37.1408
3884 1 Ar 15.8417 12.3671 0.658464 -2.5872 -0.303367 -0.477982 -32.7408 27.8455 7.09695
328 1 Ar 0.767536 13.4329 1.56859 0.105994 0.699444 -1.64206 -3.92916 2.59926 -2.84215
722 1 Ar 0.0969554 14.1161 0.869199 -0.801794 -0.308956 1.29802 34.7162 16.6152 8.12718
365 1 Ar 1.11436 14.2033 0.412482 0.173959 0.806173 -0.107083 -4.67161 -6.90203 2.30307
765 1 Ar 0.844382 15.143 0.776696 -0.79024 0.308192 0.162665 -5.59119 -4.79864 -0.622048
726 1 Ar 3.12261 13.7876 0.416863 0.813919 -1.24185 0.426617 -28.7799 -35.0842 47.6905
367 1 Ar 2.17446 14.3729 0.399084 0.0615003 0.255185 -0.777712 6.8039 21.0089 14.0905
766 1 Ar 1.8094 13.8757 1.24892 -1.38716 -0.716422 -0.466668 -1.04617 -5.44645 3.44056
371 1 Ar 3.21654 14.9423 0.387211 -1.85603 0.725793 0.460065 -7.75062 -5.34617 15.749
336 1 Ar 4.31169 14.8673 0.699756 2.04516 0.222771 0.448898 0.53398 1.23787 0.927162
732 1 Ar 3.95183 13.8571 1.10598 -1.26502 1.48708 0.553739 14.7336 -11.4578 -17.8731
769 1 Ar 3.20053 14.3906 1.47685 0.857654 1.06241 -1.3389 -15.516 20.6864 -4.43503
729 1 Ar 4.86054 13.7049 0.516337 -0.631449 -1.3631 -1.54298 -1.97345 -14.331 -18.8297
736 1 Ar 5.00582 14.2696 1.34192 0.612287 0.325882 0.164912 13.2819 7.68626 10.245
334 1 Ar 6.18285 14.8806 0.749184 0.939341 0.507441 -0.928911 17.9202 -11.1429 34.6943
740 1 Ar 6.00029 13.8355 0.575227 -0.438086 -0.145497 0.302027 1.41122 -2.66375 2.60209
338 1 Ar 7.41031 14.9697 1.21681 -1.26612 -0.515399 1.1578 -7.76658 -12.7902 19.8204
379 1 Ar 7.16637 15.4682 0.347368 -1.39818 -0.841497 -0.373932 7.90634 -8.19812 3.2365
337 1 Ar 7.23162 13.8224 0.152952 -0.0332049 -1.23327 0.61523 -17.8233 0.084027 11.7406
3944 1 Ar 8.1294 14.4508 0.6528 0.0898196 0.328396 -0.157016 -19.2193 4.88841 -7.02123
779 1 Ar 8.51879 15.5415 0.509868 0.21125 -0.850177 0.13666 3.20422 -8.75563 -1.27653
345 1 Ar 9.77494 14.0743 1.12036 0.0835568 0.0873393 0.296311 3.334 -7.81984 -2.86943
385 1 Ar 10.6123 14.5187 0.400271 0.134069 -0.456217 -1.96398 1.70288 2.34903 16.4941
3943 1 Ar 8.99862 14.3931 0.177265 -0.261994 -0.654196 0.582006 43.0826 -12.8816 6.55269
347 1 Ar 11.672 13.8064 0.549762 -0.147343 -0.236445 1.78376 -9.28311 9.56572 5.50698
346 1 Ar 11.4019 15.385 1.00518 0.63854 0.772889 0.180003 3.23683 -1.73418 0.27633
389 1 Ar 11.6465 14.812 0.0360962 0.332012 0.820472 0.494631 -31.859 5.32627 -10.0417
391 1 Ar 13.4892 14.2181 1.07945 0.0712097 -0.154793 0.355044 2.96669 2.87923 9.97059
393 1 Ar 13.8027 14.6277 0.0527235 0.452693 -0.0740195 0.72094 -18.5799 -25.6067 6.30099
350 1 Ar 12.3845 14.7262 0.666758 0.166164 0.588545 -0.104786 29.1179 -6.39305 28.0242
3993 1 Ar 13.088 13.7359 0.222891 -0.257688 -2.02298 -0.57169 0.115292 -1.07725 -5.13271
793 1 Ar 14.0801 15.1898 1.25532 -0.424994 -0.626112 -0.32256 -7.8499 2.43889 0.654139
4000 1 Ar 14.6734 14.433 0.812131 -1.11448 0.521642 1.02329 5.6501 -7.85346 -3.04967
37 1 Ar 15.0376 14.9982 16.7502 0.150883 1.44988 0.359668 13.9823 -9.78843 3.906
758 1 Ar 15.8934 14.0831 0.956065 -0.594339 -0.218856 0.420626 -39.8115 27.5136 -7.47793
400 1 Ar 16.1851 15.347 0.789301 -0.562631 0.495492 -1.61927 -13.2145 -3.01893 4.99648
363 1 Ar 0.974456 16.1563 0.944173 -0.598954 -0.0103974 0.722266 1.89116 4.49411 -18.5249
399 1 Ar 0.107104 15.6366 1.44747 0.525905 0.715474 -1.15301 25.7413 9.47905 2.59965
368 1 Ar 1.66302 15.5745 0.129518 -0.169695 -0.0605696 -0.735384 5.22756 3.54215 17.0473
372 1 Ar 3.13421 15.9773 16.675 -1.30659 -0.410122 -0.0554573 -14.0075 14.8977 13.5319
762 1 Ar 2.6439 15.7782 0.813888 -0.950519 0.268182 -0.276467 14.8266 15.7814 -2.80656
409 1 Ar 3.33429 16.6969 1.1179 -0.474116 -1.54446 0.801075 5.5457 -7.75001 -3.40872
370 1 Ar 4.15355 15.9601 0.438332 0.264697 0.960239 0.329003 -5.5324 -11.9435 -5.65734
373 1 Ar 5.35564 15.4089 0.456753 -1.80086 1.20098 -1.24513 -19.8743 8.87527 -7.40438
374 1 Ar 5.88844 16.6978 0.935162 0.37728 0.172554 -0.0303878 -13.2719 8.39578 -18.7557
376 1 Ar 4.51192 16.7473 0.962598 -0.846781 0.369371 1.06312 2.05019 10.264 10.1157
375 1 Ar 6.61576 16.2082 1.43881 0.225674 0.0060413 -0.185605 22.6927 -6.93627 9.64459