ITEM: TIMESTEP
2200
ITEM: NUMBER OF ATOMS
4000
ITEM: BOX BOUNDS pp pp pp
0.0000000000000000e+00 1.6795961913825074e+01
0.0000000000000000e+00 1.6795961913825074e+01
0.0000000000000000e+00 1.6795961913825074e+01
ITEM: ATOMS id type element x y z vx vy vz fx fy fz
4 1 Ar 0.084567 0.633175 0.549831 -0.13689 -0.48669 1.41904 14.5468 0.509614 8.39398
8 1 Ar 1.39742 0.392686 1.40937 -1.00883 -1.01508 2.08434 13.0654 25.8647 -7.67162
7 1 Ar 2.14226 -0.0401391 0.467041 0.502737 -1.6057 -0.992582 2.67273 -2.44246 -16.0689
412 1 Ar 2.47885 0.841805 1.38144 -0.728043 -0.271881 -0.38382 -4.62214 0.862519 -1.38341
445 1 Ar 1.56853 1.39946 1.7711 0.0623003 -0.375353 -0.389543 12.0897 -3.76552 -8.25877
49 1 Ar 2.16539 0.937536 0.046359 0.655296 -0.92156 -0.996578 -0.849483 0.540209 -8.47027
6 1 Ar 2.99378 1.65106 0.741807 -0.355699 -0.431781 0.696908 24.4427 -6.35905 -16.3309
410 1 Ar 4.12231 0.984905 1.01458 0.51916 -0.72715 -0.160166 6.19159 -5.62213 -11.9191
12 1 Ar 4.63806 0.640224 16.7289 0.956868 0.453057 -0.0328701 -13.0045 12.0023 -8.6463
11 1 Ar 3.08673 0.590464 0.482075 -0.965684 -0.237401 -0.583585 3.60945 -7.98849 3.79552
15 1 Ar 5.19733 0.706052 1.11078 -0.783566 -1.46341 0.11452 11.7316 -1.74087 -22.7067
53 1 Ar 5.82637 1.53189 1.59823 -0.707658 0.538054 -0.045056 -8.81483 -4.1488 19.2919
414 1 Ar 5.86391 1.07354 0.131922 0.253638 -0.145224 0.386359 -6.08804 -3.76862 -0.614985
457 1 Ar 6.44112 0.80527 1.15757 0.981861 0.581555 -0.415755 0.39994 -6.3116 -6.12043
55 1 Ar 6.58468 1.81542 0.237534 -1.21997 1.32243 0.26134 -25.2504 56.0587 5.1125
417 1 Ar 7.60977 0.295609 1.2647 -0.463206 -0.553817 -0.618539 -7.95629 0.423397 1.02639
459 1 Ar 7.16765 1.07869 0.404316 0.684252 -1.97089 -0.241367 22.7585 -43.9645 10.3163
18 1 Ar 8.62384 0.192385 0.942423 0.88513 -0.856871 -0.178417 5.04997 -4.43492 -6.74798
24 1 Ar 9.65239 0.626184 1.15239 -0.441622 1.28727 0.281964 12.9339 18.3107 -17.6501
461 1 Ar 10.4114 1.43261 1.52587 1.47015 0.127829 0.163525 -12.7245 -4.91985 3.1425
28 1 Ar 10.9262 0.744487 0.848442 -0.567225 0.242333 0.179062 -28.3271 -5.81972 -5.122
68 1 Ar 9.18766 0.801865 0.204605 -0.0360058 0.293668 -0.0480554 -0.196746 -13.1469 -4.27622
27 1 Ar 11.5994 1.3601 1.27357 0.265167 -1.01528 0.510949 -9.84506 -2.48041 3.31855
26 1 Ar 10.1494 1.49052 0.35257 -0.725696 -0.433788 -0.207413 -3.79505 -29.8934 22.3204
69 1 Ar 11.1827 1.71387 0.0652887 -0.523171 1.25053 0.174546 7.05275 -2.38558 8.79052
32 1 Ar 12.5748 1.63942 0.708712 0.0542494 -0.140288 2.56128 3.83816 4.11289 -5.0824
33 1 Ar 12.5724 16.5229 0.881747 0.384183 -1.35556 0.730363 -24.5255 8.54564 0.639205
30 1 Ar 13.5217 0.121062 0.720363 0.737134 -1.43562 -0.0967553 15.2723 8.29297 7.5736
34 1 Ar 14.0572 1.343 0.266296 0.700111 1.16646 -1.21288 -29.1371 -7.33651 -17.1191
40 1 Ar 15.0351 16.6512 0.5281 -0.35348 -0.167078 -0.34048 5.86571 1.37922 4.58362
438 1 Ar 15.2433 0.31504 1.66391 -1.02324 -0.705959 0.737533 -10.0306 -3.07924 -1.69323
434 1 Ar 14.3621 0.652635 1.01674 -0.949299 1.2372 -0.898563 11.522 -1.10271 10.2815
79 1 Ar 16.0059 0.25863 0.836617 0.243253 -0.346432 -1.2415 -16.3856 -7.725 6.70025
477 1 Ar 14.9625 1.49124 0.603792 0.0870448 -1.5539 -0.383692 27.5731 1.21783 10.4821
41 1 Ar 15.7802 0.960177 0.0136316 -1.2339 0.472596 -1.25456 -15.7522 14.529 7.80897
43 1 Ar 16.694 1.64504 0.340888 -1.92449 -0.559804 -0.605999 -0.916239 -1.8038 -11.9254
47 1 Ar 0.808453 1.20548 0.92812 1.00666 -0.244214 -0.425436 27.1546 14.1557 1.72582
83 1 Ar 0.726733 2.45575 0.617779 -0.756701 -1.822 0.362537 3.3698 -0.307891 -9.46902
402 1 Ar 16.8222 1.49821 1.5501 3.1929 -1.13272 -0.0548838 24.8176 -6.79203 0.624717
442 1 Ar 1.13684 2.36284 1.61073 -0.246997 1.98737 -0.66897 7.02915 -15.1881 -11.2637
449 1 Ar 1.99661 1.70648 0.731884 0.438271 0.214705 -0.0560974 -30.464 -2.39858 1.59843
48 1 Ar 1.89753 2.69629 0.123993 1.3909 -0.0300403 -0.564022 8.95374 7.51692 16.4871
485 1 Ar 2.09182 2.65688 1.15221 0.724699 0.246165 -0.653238 -20.2331 52.5804 -12.9921
446 1 Ar 3.10941 2.71601 0.615164 0.202748 -0.905929 -0.931122 -1.20456 3.17024 -1.4861
50 1 Ar 4.06212 2.09824 0.784553 0.0946223 0.8371 0.916695 1.28294 -3.5328 -8.60345
529 1 Ar 4.34059 3.0549 1.16374 1.22906 -0.559424 -0.0639954 -0.928878 3.581 3.97406
490 1 Ar 4.91986 2.57336 0.0971208 1.08681 0.30051 0.00343968 -5.87491 13.1838 -0.69829
493 1 Ar 5.5231 2.01515 0.718409 -0.282334 -0.430533 0.40237 5.80429 -3.3521 0.132349
494 1 Ar 6.63258 2.93561 0.0696172 -0.128479 1.66956 1.05631 -2.1948 -10.7725 -12.3904
456 1 Ar 5.52912 2.71061 1.66404 -1.02036 0.397182 0.909823 5.42875 8.71043 -19.2332
60 1 Ar 7.51707 2.48383 0.395833 -0.367664 -0.790646 -0.776238 -3.37939 -16.2916 5.73196
95 1 Ar 6.52084 2.25587 1.29392 0.117042 -1.25235 -0.191784 5.17424 8.9791 -10.3996
454 1 Ar 7.18855 1.41997 1.65516 -0.409436 0.627163 0.651838 7.67241 4.86067 -5.42343
462 1 Ar 9.11529 1.72603 0.64962 0.176458 0.337074 1.24989 18.5937 13.1392 -4.48073
99 1 Ar 8.38232 2.30905 1.12012 -0.42892 0.974395 -0.332007 1.29148 20.517 9.61919
458 1 Ar 8.09362 1.4862 0.585261 0.377965 -0.830687 0.0137993 0.937082 -1.91594 -0.23734
101 1 Ar 9.26788 2.82585 0.424453 1.1576 -0.218219 -0.277214 -18.7473 -6.46115 -5.70647
103 1 Ar 10.1397 3.15828 0.740022 -0.701205 -0.485204 -0.222593 28.5923 6.06767 19.0962
464 1 Ar 9.66545 2.40284 1.36864 0.36314 -1.50182 -0.278166 -0.139725 -4.93613 5.10336
107 1 Ar 10.8939 2.18038 1.0155 -1.0447 0.683613 1.45736 -3.86943 18.5304 -23.9005
72 1 Ar 11.2769 3.35882 1.04446 -1.43087 -0.169492 0.475967 27.0404 -27.5247 22.8023
109 1 Ar 12.1161 2.3329 0.0253957 0.708987 -1.20634 -0.793906 -8.72238 -9.98273 22.5043
73 1 Ar 13.239 2.68365 0.676107 -2.34203 0.309994 1.08205 -2.76754 5.58965 -3.05377
36 1 Ar 14.1168 2.07031 1.19711 1.58348 0.866431 0.239578 -5.59846 -15.8247 -0.0753633
3715 1 Ar 14.5808 2.97882 1.15249 0.591074 1.04088 -0.0636034 34.8549 -12.9648 0.88888
3714 1 Ar 14.1965 2.5078 0.131339 -0.709118 -0.150998 -0.542601 9.91169 -10.187 -5.96292
44 1 Ar 16.5312 2.38945 1.03128 -0.333159 0.399939 -0.0048656 -13.6115 5.70079 12.4684
117 1 Ar 15.7223 3.19658 1.07605 -0.108755 -0.937554 -0.61396 6.58536 -8.38035 12.3542
441 1 Ar 15.9016 1.34251 1.14133 -0.03501 0.594091 0.668868 -6.65101 -8.92776 -7.69133
78 1 Ar 15.413 2.42342 0.315753 0.647601 -1.74144 1.54014 8.48396 8.33765 19.6746
525 1 Ar 1.10846 3.3555 1.17361 0.567304 0.787085 1.14634 2.28743 -8.05706 -3.12518
88 1 Ar 1.68466 3.81435 16.7348 0.674193 0.171844 -1.92301 16.9079 -7.67524 -7.05029
486 1 Ar 2.54367 3.6843 0.68678 -0.613553 0.0403392 0.713195 -1.81734 -8.38505 -4.9374
524 1 Ar 2.5312 4.66206 1.07288 -0.409948 -0.215851 -0.648033 -0.703766 -8.33816 3.28661
489 1 Ar 3.65662 3.93335 0.566468 0.937859 -0.694292 0.913737 9.7574 -11.8342 9.39559
131 1 Ar 4.52635 4.32639 1.20511 0.027042 -1.22905 -0.963137 -2.83335 -8.50755 -14.0497
500 1 Ar 5.76037 3.14274 0.590286 0.547307 0.691361 0.823322 10.1242 -12.7739 14.3425
136 1 Ar 4.86533 3.54606 0.419896 -0.350601 0.00424792 -0.750124 -20.3102 24.8323 11.1161
533 1 Ar 6.42936 3.93556 0.326145 0.246259 -1.54113 -1.02067 -1.97562 14.5955 6.92939
536 1 Ar 5.44783 3.83575 1.47364 -1.13504 0.492585 -0.733195 -0.577549 -5.2355 -2.46409
537 1 Ar 7.25741 3.44085 1.01103 0.959893 0.920348 0.308083 -1.12446 7.18154 -7.78507
898 1 Ar 8.50259 3.42784 1.30645 0.211001 -0.124507 0.12298 -19.6222 -10.1676 -3.2723
94 1 Ar 8.26773 3.15983 0.256208 -0.0843039 -0.0779355 -0.50425 4.13003 -6.23546 37.0178
108 1 Ar 10.2525 4.10527 1.47795 0.0943579 -1.48486 -1.70183 -4.64023 -0.109801 -2.8103
147 1 Ar 9.96179 4.91454 0.782215 -1.3176 -0.473337 0.516605 2.96194 4.02093 1.2745
501 1 Ar 9.07012 4.26476 1.06358 0.102345 -0.166594 0.201149 4.42894 5.04932 0.3826
3747 1 Ar 10.7457 4.0188 0.571944 -1.00111 -0.160975 0.703672 -36.6771 14.3012 -26.0606
112 1 Ar 11.9811 4.31677 1.11612 -1.06618 -0.777874 1.09119 -5.57999 -21.0326 -8.78207
106 1 Ar 11.0869 2.93012 0.0708958 1.39721 1.41389 -0.59342 6.55109 -7.43638 16.8558
110 1 Ar 12.2416 3.30635 0.388365 -0.321369 -0.79913 -0.520576 -26.94 6.08833 9.79589
113 1 Ar 12.5904 4.32728 16.7306 1.16605 0.851825 0.211586 -11.9444 -21.1948 7.81789
513 1 Ar 12.9994 3.85694 0.86002 -1.23989 1.00842 -1.30278 16.3692 13.3743 -9.16071
115 1 Ar 14.0082 3.46209 0.478612 -1.77834 -1.10165 -0.0964178 -19.0149 26.2823 -14.2297
514 1 Ar 14.8337 4.15517 0.994735 0.689626 -0.169792 -0.798282 -4.90575 15.2278 0.491182
114 1 Ar 15.0657 3.41331 0.324799 -0.0663463 0.914084 -0.360415 -6.41063 3.4909 -31.3659
120 1 Ar 15.9431 4.17914 1.44272 1.03427 -0.137035 1.33519 5.37795 -5.68762 -5.01316
118 1 Ar 15.1649 4.18449 16.2922 0.416241 -1.60991 -1.44117 11.5341 -3.47179 -2.88258
119 1 Ar 16.0696 3.83917 0.241973 -0.200155 0.142539 -0.753482 -16.2143 -10.8461 11.2861
123 1 Ar 1.50049 4.27372 0.876432 0.482989 -1.78977 -0.203904 6.99916 15.4044 0.526424
163 1 Ar 0.448497 5.44493 1.37719 -0.301112 1.25189 -1.12293 37.8828 10.5006 -15.8007
565 1 Ar 1.80283 5.46151 1.08312 -0.208182 -1.00299 -0.311688 -29.5968 4.83884 -19.5814
3724 1 Ar 1.11648 5.17519 0.221771 -0.256548 -2.22874 -0.258393 -5.98434 -1.07602 0.189796
92 1 Ar 3.16378 4.39702 16.5835 -0.76393 -0.115857 -0.864705 -10.6119 -13.2025 -16.6463
128 1 Ar 2.82338 5.68018 0.864085 1.53096 -0.378658 -0.351403 2.20629 17.0202 10.2176
133 1 Ar 4.5849 4.67483 0.0643431 0.463174 -0.0232961 0.595604 -27.4795 17.7302 14.5255
526 1 Ar 3.4892 5.01464 0.49467 -0.174031 0.93822 -0.270133 22.2983 6.93516 12.076
173 1 Ar 4.29473 5.82635 0.598142 0.176619 -0.248816 -1.68837 -36.9808 4.09275 -2.56928
575 1 Ar 4.75625 5.33963 1.36648 0.242671 1.14586 -0.436433 0.0941768 6.22223 -0.440623
3736 1 Ar 5.22724 5.90035 0.275959 -0.137366 0.894168 -0.112705 25.0377 2.30798 -7.17505
573 1 Ar 5.77484 4.84242 0.622511 0.535133 0.771572 0.442394 -0.246362 2.06109 2.42655
134 1 Ar 6.52725 5.76862 0.786694 -0.674777 -2.41499 -0.329374 9.18496 7.16783 -13.7186
534 1 Ar 7.13105 4.78003 0.814319 -0.336014 2.09457 1.09974 -8.37888 -3.067 -0.778881
535 1 Ar 6.19948 5.33759 1.64609 -1.44046 -0.338059 -0.149172 -1.50768 15.5275 17.3677
539 1 Ar 7.51154 5.62971 1.33943 1.88689 1.86325 -0.453359 -8.74758 -15.1811 7.11345
540 1 Ar 8.08481 4.75322 1.59816 1.55274 0.126272 0.137072 -3.907 -35.7415 -18.0293
139 1 Ar 7.86913 5.44525 0.339179 -0.143386 0.379468 0.934882 5.47838 -8.0638 5.95983
144 1 Ar 8.00059 4.2421 0.516121 0.71085 -0.00620052 1.2033 14.619 2.21813 7.62376
541 1 Ar 8.91435 5.29051 0.696264 1.27214 0.0531387 -1.49508 2.8686 -14.4938 -4.65423
145 1 Ar 9.68403 5.28955 16.5471 -0.374036 1.11965 1.58161 2.71779 -3.46271 9.6891
151 1 Ar 10.7434 5.69164 0.238219 1.038 -1.06464 -0.0911206 0.0805653 -6.3547 -0.0228953
544 1 Ar 9.59099 5.87338 1.54058 -0.963359 0.597593 0.972265 -18.935 -26.7973 -13.6944
510 1 Ar 11.0927 4.87894 0.999774 0.952451 0.14875 0.41351 -0.969579 13.4981 6.9355
153 1 Ar 12.0938 5.18367 0.316465 1.35804 -0.00993813 1.56213 -2.78488 -2.75836 -3.39863
591 1 Ar 11.6837 5.80146 1.04283 -0.588689 0.150749 1.4236 14.1355 -9.72479 9.91595
155 1 Ar 13.4112 4.77397 0.510645 0.751543 1.0669 -1.41158 6.94744 -8.1791 13.0402
550 1 Ar 13.0561 5.75061 0.621722 0.634523 -0.232855 -0.355971 -1.67262 16.7074 10.8095
553 1 Ar 12.5993 5.06741 1.38604 0.29111 0.0346496 0.483118 7.90056 13.8425 -2.56916
159 1 Ar 14.3339 4.45617 0.0582002 -0.358616 -0.00201247 -1.42581 26.2906 0.479897 20.108
160 1 Ar 15.2853 5.99122 0.293815 1.18029 -1.44399 1.03188 -5.43157 6.37208 -15.4165
593 1 Ar 14.3123 5.42662 0.528437 -0.331623 -0.176209 -0.0819074 3.23248 0.923424 7.07657
200 1 Ar 15.5262 4.8741 0.518505 0.816843 0.377114 -1.14444 -10.8376 -22.4017 -14.8264
84 1 Ar 0.0201253 4.42913 0.80033 0.437647 -0.111143 -0.808722 7.8052 -2.79343 15.7069
157 1 Ar 16.4416 5.33782 0.579907 0.0492013 -2.33307 -0.137387 -3.02837 3.91714 43.6577
522 1 Ar 2.09404 6.24045 0.337233 -0.791013 0.670466 1.32125 -8.06691 4.37838 -5.52191
162 1 Ar 1.21537 7.02009 16.6717 -0.913984 0.335147 -0.785063 2.63554 -7.33854 30.0111
561 1 Ar 0.482708 6.15489 0.315436 -0.880649 -0.318421 -1.45523 6.30939 6.45437 11.813
605 1 Ar 0.595123 7.46619 0.812447 0.299172 -1.06155 -1.83376 -3.87974 5.5949 -6.28032
167 1 Ar 2.67878 7.09709 0.736705 0.259974 1.18868 0.639479 -1.31345 -1.60008 -3.99545
566 1 Ar 2.01248 6.51908 1.57266 -1.24579 -0.781321 1.09023 17.5117 0.041039 4.25773
172 1 Ar 1.67844 7.43327 0.933972 -0.268774 -0.356626 0.757049 -18.6986 -18.6391 -7.50408
570 1 Ar 3.19022 7.59787 1.55218 0.350096 -0.820483 1.41994 8.85139 5.91093 -1.2623
569 1 Ar 3.19046 6.53934 1.46307 0.25734 0.888073 -1.67946 5.55694 -2.78902 -18.5775
171 1 Ar 3.74078 6.79909 0.543303 -1.12445 -0.874944 -0.430732 -4.31769 -9.80216 -7.56442
170 1 Ar 4.90628 7.04942 0.225134 0.220852 0.0413395 -0.290298 -7.61095 -18.3408 2.03711
175 1 Ar 5.26489 7.9966 0.187381 0.519333 0.249088 0.290063 -1.06021 21.1382 8.19548
577 1 Ar 5.6069 6.16128 1.3422 -0.238184 -1.47359 0.639037 -5.97237 7.10301 0.490222
177 1 Ar 6.55012 6.7636 0.276977 -0.150795 -0.0105672 0.112408 -0.258082 -9.40489 10.4044
538 1 Ar 7.55741 6.48727 0.787059 -0.00139886 0.30789 -1.19782 4.15801 0.697203 -11.3722
574 1 Ar 6.59061 6.74317 1.37708 -0.221058 0.536458 -1.60067 -16.0848 -56.7638 16.6508
179 1 Ar 8.16582 7.21546 0.00326492 0.541802 0.0579606 -0.0162677 1.89797 -7.99998 21.031
183 1 Ar 8.46655 6.09857 1.14808 0.110095 -0.109937 0.10143 1.02116 3.29792 -7.80736
148 1 Ar 9.56051 6.11617 0.474541 1.69661 0.15078 -0.0635992 10.0028 3.55389 -2.62005
185 1 Ar 10.4362 6.60719 16.5166 1.08733 0.111915 -0.982852 32.8026 -22.6208 -1.69847
582 1 Ar 10.2542 7.70607 0.912988 -0.313699 -0.201225 0.190921 11.1962 -16.0353 4.39294
585 1 Ar 9.87751 6.81594 1.52283 0.562029 1.33201 1.77356 14.4174 27.306 -6.33937
142 1 Ar 8.94436 6.97972 0.693298 1.4496 1.69956 -1.81886 11.1919 -24.8223 4.06252
546 1 Ar 11.0564 6.56779 0.838149 -0.939323 0.802197 -0.0620758 -18.3356 -5.72873 7.37535
187 1 Ar 11.1728 7.31308 0.178651 -0.08052 -0.907555 0.857464 3.12871 16.622 -9.22484
586 1 Ar 11.4049 7.48377 1.25232 -1.16168 -0.0563386 -0.702111 13.2357 20.118 -35.335
191 1 Ar 12.1905 6.68524 0.655511 -1.24997 -0.938911 0.124312 1.59746 2.7135 8.32425
590 1 Ar 13.2311 6.95733 0.956841 0.550015 -0.820902 -0.5527 -17.9696 -20.4616 -10.918
193 1 Ar 14.0827 6.37121 0.0261725 0.185372 0.847079 -0.80672 -11.2316 -1.16851 -0.985478
3760 1 Ar 14.5338 7.43663 0.426247 -0.394495 1.74034 -0.988859 16.4882 -10.1434 11.346
158 1 Ar 16.4748 6.22607 1.26329 0.493358 -1.58213 2.71008 5.24737 -5.12138 -8.46214
164 1 Ar 16.2624 7.546 0.767405 -0.728657 -0.244127 -0.133917 23.8221 16.0796 -4.23804
199 1 Ar 15.418 7.01433 0.843786 0.157481 0.00258043 0.266501 -21.6624 -14.1296 9.68701
3799 1 Ar 16.216 6.57949 0.286392 0.832382 -0.557193 -0.0062609 4.45098 -0.271539 -6.96219
208 1 Ar 1.10193 9.35533 0.44091 0.118136 0.199559 -0.728964 -14.2622 -21.4802 23.8703
608 1 Ar 1.40273 8.46352 1.17134 -0.527232 0.333658 0.404307 -19.1618 7.68421 -2.99112
609 1 Ar 2.36047 8.14761 1.03489 1.786 0.286809 -0.340094 36.017 32.7989 -9.87187
211 1 Ar 4.12443 8.77893 1.56793 -0.180388 0.383416 -0.410623 5.39028 -1.45678 -28.5459
210 1 Ar 3.3649 8.56542 0.829467 -1.16665 1.6059 0.786961 -4.93952 3.02495 0.602844
176 1 Ar 3.72574 8.09807 16.6724 -1.41457 -0.417706 -1.22036 -3.48886 -14.7834 0.227968
610 1 Ar 4.07197 7.72687 0.855625 0.475415 -0.793475 -1.25766 -0.998233 9.42318 1.55555
214 1 Ar 5.99298 8.69678 0.91418 -0.654766 0.431274 1.43749 12.7258 12.0504 -25.4229
613 1 Ar 4.95107 7.72514 1.40718 -0.622551 0.291382 -1.64903 -21.9773 -16.4049 -7.37047
253 1 Ar 5.71159 8.2261 1.74222 0.118892 0.159453 0.607348 18.0573 14.3635 40.2271
651 1 Ar 4.95193 8.79197 0.953596 0.792048 -0.147227 1.06672 -5.76733 -17.3196 -10.2278
180 1 Ar 7.16752 7.39664 0.966476 0.161099 -0.0380752 -0.444392 24.5985 41.1544 -26.7785
174 1 Ar 5.97066 7.45386 0.984132 -0.603977 -0.598068 -0.248213 -8.12477 12.496 -10.8378
215 1 Ar 6.99028 9.09467 0.686684 0.0940312 -0.218019 0.821933 -35.566 -6.61709 -23.3382
219 1 Ar 8.02462 8.33179 -0.0112945 1.96067 -0.337197 -1.43098 1.31026 -21.201 7.87934
223 1 Ar 8.67049 8.5007 1.25639 -1.80503 1.81197 0.626382 -17.922 -30.7085 -11.306
618 1 Ar 7.64329 8.5076 1.11897 2.02104 0.479431 -0.33226 27.0903 -12.4028 -2.42379
3828 1 Ar 8.204 9.28541 0.488967 -1.63326 0.0657309 0.343725 12.5747 7.34058 22.9943
225 1 Ar 9.08774 7.95176 0.476535 -0.768563 -0.26297 0.782854 0.999109 11.2589 -6.24251
625 1 Ar 9.7524 8.57668 1.11539 0.135855 -0.902258 -0.644826 3.89818 -14.0385 -4.70233
3827 1 Ar 9.64819 9.15424 0.0604968 -0.22202 -1.43451 -0.971449 -3.82559 5.8176 0.746308
188 1 Ar 10.0138 8.16005 16.7844 -1.31699 0.498073 0.315527 1.59442 -2.93782 -3.11564
227 1 Ar 10.6836 9.00177 0.780861 0.808282 -0.273468 0.777211 -0.452564 7.5892 3.34841
192 1 Ar 11.6421 8.3533 0.539427 -0.13445 -0.318506 -1.28364 -1.83523 -5.53144 8.29513
669 1 Ar 11.0952 8.39767 1.53131 -0.238597 -0.411931 0.00194404 -7.45784 20.7522 9.18914
190 1 Ar 12.5683 7.7865 0.859721 0.420931 -0.220695 -0.0358012 -4.70338 -14.7768 -1.42875
231 1 Ar 13.3985 8.56814 1.43298 -0.232408 -1.51705 1.62631 -2.65405 -5.33919 -9.32541
3796 1 Ar 12.7128 8.6092 0.328088 1.03193 1.50426 -0.0354178 5.09349 12.2385 -20.9676
195 1 Ar 14.3027 8.51033 0.755709 0.0733353 0.581597 0.680121 6.53646 -19.359 20.3694
194 1 Ar 13.6928 9.22582 0.455842 -0.190759 -0.192428 0.150095 -5.91013 15.6753 -5.89582
636 1 Ar 14.1855 9.35938 1.44986 -1.06903 1.52778 -0.17777 0.34193 8.08471 1.91702
3795 1 Ar 13.8925 7.55467 1.40626 0.238639 1.56 -0.16655 15.9691 14.5494 6.13359
201 1 Ar 0.33456 8.63096 0.621321 -0.875104 -0.31436 0.662223 -3.30737 -5.35241 2.2027
197 1 Ar 15.3371 8.26964 0.883443 -0.69244 0.02327 0.862561 11.4397 -4.37296 12.3973
204 1 Ar 0.349306 9.72006 1.03131 0.131208 -0.179476 0.360669 -4.60278 9.61172 9.84609
243 1 Ar 1.57693 10.2622 1.48508 0.965746 0.431898 0.269984 -4.88422 -1.34572 6.92171
241 1 Ar 0.0346513 10.0844 0.0893238 -0.0275984 -0.507892 -0.340624 17.3207 2.82593 4.44737
212 1 Ar 2.99001 9.5917 0.523042 0.438532 1.1763 1.01302 3.52869 3.66903 -4.9899
245 1 Ar 1.85606 10.0688 0.467094 1.31357 0.818652 -0.703051 13.2353 15.6185 2.33289
247 1 Ar 2.71217 10.3584 1.32684 -0.143209 -0.401786 -1.36668 -4.7681 20.9612 -5.27798
249 1 Ar 2.82408 10.6781 0.115616 0.146689 -0.129681 -0.332863 -9.9273 -19.0806 2.79457
606 1 Ar 2.28671 9.44226 1.3177 1.46275 -1.56052 0.542396 -14.8099 -25.766 2.82399
612 1 Ar 4.15222 9.71185 0.863651 0.927613 0.553205 0.0757448 4.08757 -12.356 6.54873
649 1 Ar 3.83094 10.669 0.663646 0.524066 0.897511 -0.994675 -15.681 4.62464 -10.3689
653 1 Ar 5.24564 9.73844 1.15822 1.95236 0.0474476 0.208802 -0.621567 22.486 3.03501
689 1 Ar 4.64264 10.722 1.3475 -0.292539 -0.174896 0.0641668 10.5185 5.76658 -15.8222
3856 1 Ar 4.86749 10.1296 0.169011 -0.0640344 -0.19988 -2.25813 13.9587 -7.20271 6.04077
255 1 Ar 6.4055 9.94997 1.19007 0.127095 -0.360062 0.0973111 21.8045 -9.10003 22.6161
218 1 Ar 7.49244 9.81942 1.16241 -1.33805 -0.676678 0.27939 19.0065 -12.0979 14.2616
222 1 Ar 8.78737 9.41901 16.044 0.455381 -0.881125 -0.632503 13.6909 -3.09313 2.26707
263 1 Ar 8.59626 10.1131 1.61296 0.357036 -0.0675342 -0.599338 -9.29664 -4.82153 12.6831
3859 1 Ar 8.22784 10.5106 0.696084 1.66105 -0.166031 -0.349551 0.302724 -7.4416 5.28617
265 1 Ar 9.14762 10.141 0.357618 0.653349 1.21779 0.101661 -6.91214 2.36383 -15.7838
267 1 Ar 9.99119 10.2154 0.940025 -0.120219 0.570336 -0.000160796 13.2751 0.984995 4.68383
665 1 Ar 9.17386 10.8785 1.29483 1.25908 1.97939 0.0920234 39.5651 -1.994 -12.9451
232 1 Ar 11.7492 9.25775 1.16596 -0.868946 -1.39571 0.201035 4.0857 -14.5204 -17.3427
269 1 Ar 10.9417 11.0316 0.737485 -0.588303 0.0428119 0.210231 26.3536 -10.1508 -34.9363
272 1 Ar 11.8139 10.3846 0.885988 -0.275055 1.28343 -0.815545 5.80398 -0.405778 6.36608
3836 1 Ar 11.7489 9.28457 0.00312298 -1.78105 -0.122375 -0.144296 2.51367 2.7982 -1.45397
311 1 Ar 13.0756 10.6289 0.612449 -1.53524 1.22466 0.00120679 -4.61406 -1.36948 13.6105
230 1 Ar 12.7765 9.57453 0.690627 0.154101 -0.134922 -0.0784928 -21.213 18.7811 8.29412
234 1 Ar 15.2167 10.3252 0.924872 -1.209 0.384176 -0.0909255 -0.659448 -5.50266 11.8186
237 1 Ar 15.0146 9.39331 0.457164 -0.986782 -0.123025 -0.942469 5.51938 -8.65965 7.43259
233 1 Ar 14.0699 10.2131 0.704528 0.437383 -1.2733 0.299606 -0.587691 -25.9722 -2.849
279 1 Ar 16.258 10.6028 0.993742 0.110494 -0.505715 -0.568412 18.1164 -3.25337 8.12864
238 1 Ar 16.1853 9.43313 0.71868 -0.507315 0.582631 0.479138 -12.2849 -0.537011 -2.7543
244 1 Ar 0.601161 10.7375 0.94129 0.32534 0.447083 -0.0321964 -3.38382 8.21424 12.5281
282 1 Ar 1.12288 12.0008 0.691579 -0.490005 0.0115546 0.420811 -6.51324 -4.6523 -7.27096
248 1 Ar 1.72914 11.0834 0.751025 0.356884 -0.231786 -1.11151 3.77646 -4.05847 -6.73879
285 1 Ar 2.46848 12.2706 0.402559 -0.224115 0.304454 -0.211324 -3.13137 -6.64179 -13.5789
287 1 Ar 2.91057 11.3984 0.857192 1.06477 -0.930725 0.248418 -59.0732 -16.9877 -3.11394
331 1 Ar 3.79304 11.6927 1.06076 -0.0362522 1.08288 0.0340971 69.6473 7.7096 0.359022
250 1 Ar 5.61145 11.1926 0.905081 -1.79647 1.50568 -1.59456 -3.11952 -13.1278 0.766007
291 1 Ar 4.57464 11.358 0.310163 0.315539 -0.0837673 0.208114 16.9648 18.6245 23.2184
693 1 Ar 5.4962 11.9558 0.23842 -0.246496 -0.940868 -0.477047 4.67986 -0.0897654 -11.2297
256 1 Ar 6.72555 11.7959 0.0252961 0.0567221 -1.0089 -0.715376 -9.94298 2.07168 10.5786
297 1 Ar 6.65948 10.9385 0.880284 -0.39964 -0.715982 0.0221482 12.5041 4.85207 5.19904
654 1 Ar 6.44978 12.0586 1.42387 1.34995 -0.614194 -0.158296 -23.3824 -3.80599 -29.7791
301 1 Ar 7.39398 11.7953 1.00954 1.27965 -0.000237997 -1.1741 7.24423 -7.09602 -3.27286
662 1 Ar 8.38391 11.4006 1.5471 0.378496 0.0982078 0.284254 -18.1512 21.9041 10.7024
3864 1 Ar 8.36292 11.5336 0.439109 0.441991 -0.962653 0.449805 13.6311 -0.782179 -0.984169
266 1 Ar 9.4434 12.0599 1.40711 -0.962964 -0.0715337 -0.52246 -11.7724 -20.0261 4.4802
666 1 Ar 9.60632 11.2161 0.323847 -0.44786 0.527763 -0.551048 -22.6919 -24.2503 -3.93662
306 1 Ar 10.2952 11.9077 0.438518 1.29021 1.59873 -2.4776 22.3752 26.3692 5.03502
707 1 Ar 10.3517 11.287 1.45955 -0.433824 -0.421394 0.199413 -34.3416 3.08863 17.3529
309 1 Ar 10.7284 12.2951 1.4637 1.15662 0.135737 0.647078 -12.0744 -2.43192 -16.3304
709 1 Ar 11.6883 11.8677 1.37597 0.512396 -1.07109 1.09837 -4.14136 -26.0782 10.126
3912 1 Ar 11.5275 12.2689 0.218082 0.240358 0.171598 -0.16784 -2.84493 -15.9034 0.693061
270 1 Ar 12.1961 11.3752 0.562366 1.43412 1.66235 -0.909725 0.174772 -12.1938 0.428627
316 1 Ar 12.3914 11.015 1.67276 0.461584 1.06333 0.195373 -5.28616 -3.90471 -10.9716
313 1 Ar 13.953 11.1251 0.125835 -0.882645 0.376953 0.00533477 8.84464 -5.83822 -1.06087
315 1 Ar 14.3614 11.0344 1.18305 -2.1909 -0.282893 -0.422584 5.49746 16.6861 14.8589
317 1 Ar 14.5263 11.9151 0.635295 0.746889 -0.284603 1.48859 -5.01264 13.9625 4.43848
353 1 Ar 13.2733 11.8123 1.38907 -0.210396 -0.153875 1.5181 0.128896 -1.69247 3.1784
275 1 Ar 15.445 11.3405 1.03024 -0.827998 -1.79941 0.058259 4.41886 12.3225 12.7843
319 1 Ar 16.5458 11.5943 0.916483 1.3511 -0.192502 0.830405 -4.92183 2.55552 15.4103
284 1 Ar 0.244621 12.5865 1.1304 -1.0253 0.505012 -1.1183 -5.67793 -7.17054 27.5195
682 1 Ar 1.53077 12.8345 1.20145 -0.405462 -1.22116 0.266064 -6.2561 -17.9521 9.57739
3923 1 Ar 0.610049 13.1483 0.378525 -0.581894 1.12594 0.0690941 12.1074 15.4029 -4.94893
725 1 Ar 1.88487 13.2036 0.238098 -1.02145 1.07076 0.957662 -27.6276 -7.18266 -15.9663
727 1 Ar 2.65133 12.5862 1.35332 0.786354 -1.22766 0.438831 -7.45049 3.85725 27.6767
686 1 Ar 3.48108 12.639 0.751682 -0.192555 0.376327 -0.188937 16.1358 -13.5292 3.32949
332 1 Ar 3.73254 13.2929 0.0019348 -0.363911 1.37735 -1.11403 13.0342 -23.7959 -10.0122
327 1 Ar 4.11443 12.2643 16.755 -0.624552 -0.450234 0.84022 18.2524 14.506 5.62799
733 1 Ar 5.64674 12.8183 1.28806 0.348204 -1.22427 -0.250909 -6.8037 5.29141 -12.8925
696 1 Ar 4.74298 12.2746 0.93308 -1.244 0.57146 -2.21081 -5.26187 3.33057 4.29021
690 1 Ar 4.57537 13.4443 1.55129 -0.784559 0.908249 0.226632 -5.29604 -2.29849 -11.3338
735 1 Ar 5.4566 13.6769 2.0878 0.313898 1.45175 -0.231527 4.1328 0.923695 6.48068
694 1 Ar 6.48052 12.6566 0.59778 -0.391524 0.376287 -0.107372 -8.20637 9.56273 -1.53965
300 1 Ar 7.70815 12.2018 -0.0221648 1.39996 -0.928244 -0.591741 -24.2523 -1.95284 19.0163
339 1 Ar 6.97645 13.952 1.35827 0.391632 -0.668912 -0.960384 -3.30187 -7.92263 4.49099
295 1 Ar 7.23929 12.8116 1.35309 0.22235 -0.200778 0.803676 14.6383 2.79982 -3.28401
302 1 Ar 8.07725 13.0857 0.514298 0.155403 -0.152978 -1.11137 -14.9014 21.733 -42.7291
343 1 Ar 8.94314 13.4325 0.929753 -0.446424 1.75109 -0.850898 24.1395 0.0641705 4.2498
3903 1 Ar 8.36503 12.3927 1.08795 -0.18076 0.860538 -2.44041 15.8995 -48.4357 40.6999
305 1 Ar 9.95645 13.4432 0.0924127 -0.346196 -1.06055 -0.14625 -1.28333 -2.66669 24.7801
308 1 Ar 9.91116 12.8871 1.06644 1.02675 -0.793986 -0.253766 16.5363 4.7308 -1.76322
3905 1 Ar 9.15755 12.6039 0.39771 -0.94391 1.10257 -0.695765 1.60404 -21.6738 -22.9104
312 1 Ar 11.6117 12.8526 1.15032 0.319325 1.03694 -0.92049 -8.50294 25.5114 2.03138
307 1 Ar 10.8554 13.5735 1.05132 0.517529 -1.01164 -1.32793 -3.58992 4.84946 3.62567
3947 1 Ar 11.0817 13.2146 0.0784582 0.302251 -0.209707 0.538245 -17.2047 -10.1082 6.8098
310 1 Ar 12.454 12.3681 0.866452 0.255533 -0.532581 -0.220094 23.5435 1.41223 8.15482
352 1 Ar 12.557 13.4271 0.994246 -0.707612 -1.38988 -0.349642 10.556 2.18933 6.4357
355 1 Ar 13.2379 12.9297 1.66378 -0.875274 1.50913 -1.24463 12.1185 -11.3232 -16.9266
356 1 Ar 13.7254 12.6826 0.733983 -0.687595 -0.528963 0.163848 1.09021 -6.90424 1.4529
357 1 Ar 15.2318 13.2327 0.803137 -0.397344 0.233783 1.59021 -5.10069 2.00361 0.208611
318 1 Ar 15.0792 12.3761 1.43352 -1.13816 -0.934607 -1.18986 22.2607 0.411163 -24.7166
360 1 Ar 14.4313 13.2092 1.68144 -0.999377 -0.540786 0.292384 4.73363 -10.8051 -2.04017
322 1 Ar 16.2916 13.4658 0.577294 1.8498 0.87699 -0.256643 14.4374 -4.70641 13.2647
3884 1 Ar 15.6796 12.2886 0.398018 -0.229509 1.33045 -1.31785 -0.468002 -2.2868 1.8393
328 1 Ar 0.333839 13.7241 1.46978 -1.41873 -0.226968 -1.14146 9.12744 1.86668 -13.6544
722 1 Ar 16.7134 14.6023 0.896849 0.0503847 -0.40061 0.635148 10.4414 -3.69796 5.90674
365 1 Ar 1.06828 14.188 0.432127 -1.38535 1.38494 1.22075 -0.491368 6.01789 0.132578
765 1 Ar 0.800393 15.2256 0.922716 0.568762 0.886792 -0.0174755 -0.512702 4.84202 -21.9695
726 1 Ar 2.79181 13.3686 0.614197 -0.486481 -0.0351337 -2.05251 -2.16876 14.2934 3.25271
367 1 Ar 2.217 14.4468 0.28796 0.597596 -0.724183 0.647498 -3.58062 -29.9 3.23775
766 1 Ar 1.82783 13.7864 1.1101 -0.624279 0.223294 0.328923 8.26331 25.7858 7.01071
371 1 Ar 3.16017 15.0729 0.592847 1.49078 1.27981 0.0939618 26.2695 -14.4791 8.00898
336 1 Ar 4.31941 14.9928 0.59677 -0.424374 -0.813018 -0.457275 4.5845 -33.4503 13.2011
732 1 Ar 3.52067 14.0714 0.776189 1.77611 -0.295635 -0.034396 13.7612 7.72207 16.5268
769 1 Ar 2.67512 14.356 1.50591 -1.12776 -0.998474 1.19523 17.7597 3.52951 -0.0313007
729 1 Ar 4.93391 13.4204 0.529779 -0.52035 -1.34512 0.666299 5.99147 -20.3942 7.50245
736 1 Ar 5.29573 14.1613 1.15006 -0.927376 1.19527 1.38196 3.20577 17.8752 3.72945
334 1 Ar 6.50694 14.8185 0.8591 1.42601 0.460801 -0.450129 1.08024 -11.7306 18.6736
740 1 Ar 6.12701 13.7362 0.570731 -0.280922 -0.16903 -0.795807 1.65679 -1.45531 -2.58221
338 1 Ar 7.5661 14.8014 1.15431 -0.791559 -1.34783 -1.41932 -28.4488 5.58548 -18.96
379 1 Ar 7.30637 15.4955 0.431549 0.199383 -0.28724 -0.43929 -20.7187 3.10873 24.8677
337 1 Ar 7.37659 13.7734 0.354856 1.84169 0.822045 1.77189 -26.1253 12.4854 -8.15767
3944 1 Ar 7.94796 14.6332 0.122593 0.462617 0.384775 -2.23419 7.68146 -12.8993 17.8928
779 1 Ar 8.59639 15.3422 0.479659 -0.456051 0.401769 -0.300763 8.64979 3.99614 16.6461
345 1 Ar 9.85393 13.9 1.17785 -0.110108 0.0898984 1.1091 7.26984 17.8927 -2.17564
385 1 Ar 10.4809 14.4955 0.428497 0.373255 -1.75921 0.26962 9.84824 -11.5914 -7.30608
3943 1 Ar 9.10088 14.3355 0.248562 -0.803167 1.13149 0.545208 -5.01697 -5.31896 1.19602
347 1 Ar 11.7816 13.9808 0.59793 0.456529 1.55499 -0.525406 -7.36078 8.95458 6.11421
346 1 Ar 11.2802 15.4082 1.01115 1.0554 0.412654 0.815823 6.23281 2.62238 -2.88464
389 1 Ar 11.3833 14.976 16.6712 0.197241 1.04006 -0.122905 2.6772 -3.10413 4.83111
391 1 Ar 13.6868 13.6577 1.04204 -0.715585 -0.213228 0.482282 -2.24659 23.2193 -3.77269
393 1 Ar 13.9233 14.7687 0.169387 2.41035 -2.37177 0.313896 -5.80055 -17.8281 -0.727202
350 1 Ar 13.2122 14.7476 1.02061 0.664982 0.222328 0.496227 -29.6804 -22.2897 -25.4843
3993 1 Ar 13.0859 13.7768 0.0385526 0.7672 -0.79922 0.982088 11.2906 -10.2684 4.52923
793 1 Ar 14.0733 15.141 1.24408 1.47986 -0.672948 0.765595 37.1814 14.4249 13.8967
4000 1 Ar 14.6821 14.2245 0.957904 0.222534 -0.0890042 0.936674 -10.9785 0.0690231 -6.31063
37 1 Ar 14.9948 14.8281 -0.0215267 0.268586 -1.32285 -1.11559 1.30281 3.86079 3.99559
758 1 Ar 15.6776 14.5159 0.78992 0.753825 0.81895 -0.785777 -1.55514 1.22917 2.91209
400 1 Ar 16.192 15.4671 0.462875 0.0542638 0.241598 -1.56347 -2.48054 0.0805283 -1.27879
363 1 Ar 1.10413 16.2896 1.05433 0.242748 0.945418 -0.549489 -4.87334 -13.9939 -33.2828
399 1 Ar 0.100147 15.8921 1.48461 -0.68595 0.776238 -0.807234 5.96013 -4.25676 1.36636
368 1 Ar 1.53756 15.3061 0.132649 -0.311944 -0.582609 -0.51021 -1.93031 14.8538 19.636
372 1 Ar 3.09742 15.9951 16.6897 0.947635 -1.27523 1.97938 3.73861 10.0288 -6.06528
762 1 Ar 2.3714 15.6699 0.601696 -1.53635 -0.267362 -1.9061 -1.93379 43.7731 -3.06567
409 1 Ar 3.18482 16.3666 1.11013 0.490078 -0.143271 0.84004 13.4252 -0.775178 -6.11155
370 1 Ar 4.09364 15.8992 0.301647 -1.10511 1.62509 0.620359 -21.7229 23.4995 16.3028
373 1 Ar 5.31644 15.4571 0.600098 -0.616738 -0.0907786 1.19066 -1.43212 -2.33278 -4.98197
374 1 Ar 5.8229 16.3256 0.963513 0.169057 -0.911887 -0.92162 -7.48578 25.3655 -17.4296
376 1 Ar 4.50461 16.7571 0.724589 1.31052 -0.251174 -0.522914 1.85322 -2.25185 12.9887
375 1 Ar 6.7808 16.0436 1.19837 0.561288 0.77147 0.624185 15.6421 -3.17533 -4.66466