ITEM: TIMESTEP
2500
ITEM: NUMBER OF ATOMS
4000
ITEM: BOX BOUNDS pp pp pp
0.0000000000000000e+00 1.6795961913825074e+01
0.0000000000000000e+00 1.6795961913825074e+01
0.0000000000000000e+00 1.6795961913825074e+01
ITEM: ATOMS id type element x y z vx vy vz fx fy fz
4 1 Ar 16.7434 0.718363 0.716489 0.0905916 -0.0878086 -0.926071 -16.939 5.67239 -50.0955
8 1 Ar 1.41463 0.0389185 1.21057 0.39069 0.754149 1.19364 -9.22912 4.265 5.62668
7 1 Ar 1.88159 16.2722 0.46753 -1.87174 1.16586 0.104908 2.56115 -11.1886 -5.84245
412 1 Ar 2.34679 0.548512 1.39142 -1.03074 1.4425 -1.50176 18.2555 -12.3213 -5.85853
445 1 Ar 1.77021 1.32175 1.73266 1.50606 0.818757 0.247262 -9.37914 8.34954 -3.47012
49 1 Ar 1.7902 0.414127 0.00331373 1.36708 -1.31689 0.0214706 10.9914 0.773481 6.6127
6 1 Ar 3.23892 1.16092 0.783443 -0.108638 0.637779 1.45643 -12.9072 -3.01931 -11.8528
410 1 Ar 3.99246 0.929628 1.5356 0.476206 0.580949 1.18489 29.3345 -41.4633 -7.08433
12 1 Ar 4.25139 1.00102 0.300745 -1.44278 0.602985 1.13811 2.358 -4.80495 12.3543
11 1 Ar 3.24539 0.119881 0.758033 -0.849044 -0.736559 -0.92424 -1.3746 -9.92947 -0.431622
15 1 Ar 5.00547 0.844705 1.11073 0.399658 0.558545 0.0716451 -0.631693 -4.38077 9.30456
53 1 Ar 5.51797 1.49475 1.98001 0.495226 0.343458 0.1234 -2.70953 -1.29241 -1.15805
414 1 Ar 5.61261 0.988856 0.265244 -1.93532 0.308077 1.13647 -6.87606 14.2272 -10.2109
457 1 Ar 6.37636 0.85136 1.32859 -1.0301 -0.134189 -0.675455 -1.40699 -0.156619 5.05797
55 1 Ar 6.76167 3.04906 16.3659 1.18159 0.578039 -0.337866 22.4651 -6.46131 46.224
417 1 Ar 7.34627 0.277491 0.472098 -0.0636868 -0.748059 1.00494 16.9891 -12.2914 21.9294
459 1 Ar 6.74679 1.2804 0.410542 -0.329294 -0.169402 0.959381 6.83999 2.47651 12.0012
18 1 Ar 8.67061 0.0153912 0.88215 0.0140919 0.110726 -0.238307 -2.79451 -7.8003 17.6249
24 1 Ar 9.50613 0.896907 1.20002 -0.117625 -0.0498756 0.106588 7.01691 -16.857 -13.9157
461 1 Ar 10.507 1.39129 1.21622 -0.614975 0.92956 0.768242 -4.47688 2.45691 6.06736
28 1 Ar 10.6411 0.331372 1.09655 1.88016 -1.8551 -0.630713 26.085 -4.91383 -5.70327
68 1 Ar 8.9531 0.737223 0.199554 0.394094 1.09976 0.44759 8.1493 21.6379 -1.1106
27 1 Ar 11.5532 1.51537 1.32931 0.849836 -1.17201 0.347426 -0.606124 -3.67348 12.316
26 1 Ar 10.1074 1.17615 0.166731 0.361724 -0.296412 -0.255832 -22.9483 -3.98412 0.0729074
69 1 Ar 11.0192 1.62622 0.373652 -0.204392 -0.710223 0.892651 6.07215 21.8774 -18.7066
32 1 Ar 12.4012 1.93964 0.632857 -0.287771 0.403098 -1.27621 -10.8785 3.16014 13.4847
33 1 Ar 12.7132 0.365975 0.63694 -0.0193996 -0.967054 -1.40008 3.93375 -17.0325 -17.9962
30 1 Ar 13.6732 16.4648 0.167229 -1.06237 -0.574194 -0.372401 -6.76617 3.18532 0.539485
34 1 Ar 14.2672 0.965049 0.0399024 0.0329412 0.496104 0.23226 1.79096 -2.23504 -1.2691
40 1 Ar 14.7425 16.5803 -0.0228951 0.626277 -1.14251 -0.983689 23.7042 -10.8434 23.444
438 1 Ar 15.1373 0.148806 2.20273 0.399162 -1.27345 0.0179305 -14.8519 -9.95316 40.3778
434 1 Ar 14.9219 0.73489 1.38132 -0.122806 0.221804 0.827622 -30.7315 0.0332449 -1.0823
79 1 Ar 15.4133 0.53797 0.375244 -0.088741 -0.0144794 0.575601 -8.7409 -2.46075 -14.0538
477 1 Ar 14.9647 1.66542 0.586014 1.21882 -1.19148 -1.0618 30.9035 -29.6425 -11.5902
41 1 Ar 15.5068 1.08816 16.2584 0.255776 0.333395 -2.04132 -7.56037 4.34413 -0.165689
43 1 Ar 16.1644 1.61425 0.148828 0.112198 0.557278 0.601732 1.10292 -6.86977 0.0520322
47 1 Ar 1.05908 0.96581 0.815676 -0.72329 0.697666 -0.471958 7.89747 0.0460353 -2.29385
83 1 Ar 0.423767 1.71107 0.457622 -0.620972 -0.463663 1.66804 -15.8611 -11.7848 9.3176
402 1 Ar 0.152803 1.70422 1.61856 0.80032 0.829098 -0.0452859 3.11016 -17.1109 -5.67485
442 1 Ar 1.16918 2.10956 1.10469 -0.132457 -0.410165 0.480479 15.4665 -14.6242 31.7413
449 1 Ar 2.13091 1.37401 0.741734 1.15247 1.11186 -0.935408 -2.48697 -1.96302 -2.39516
48 1 Ar 1.94885 2.85378 0.201571 -2.29041 0.71307 -0.186274 -22.0308 -10.9521 0.0795241
485 1 Ar 2.29757 3.12338 1.24252 0.931291 0.05305 0.0797372 7.33619 -10.8397 10.1847
446 1 Ar 3.2139 2.34401 0.452651 0.833814 -0.401884 -0.646453 -27.5419 -4.72494 29.9773
50 1 Ar 4.08195 2.73055 0.971754 -0.467042 0.175954 0.408953 -0.313726 8.13681 -27.9266
529 1 Ar 5.03552 3.1132 1.37232 -0.727356 0.993933 0.351871 -7.14459 13.4713 0.24678
490 1 Ar 5.28871 2.85877 0.168941 0.82536 -1.19807 0.256764 1.57534 0.101388 3.54951
493 1 Ar 6.12992 2.17672 0.239075 0.510894 -1.51902 0.0306632 -1.00801 -8.66251 -8.41355
494 1 Ar 7.27528 3.8875 0.164982 -0.69063 -0.585567 -0.134812 -20.1824 8.6333 1.18992
456 1 Ar 5.68938 2.34854 1.19143 -0.858836 -0.842781 -0.758406 19.4121 -6.59282 3.04078
60 1 Ar 8.05902 2.08791 0.816613 -0.198016 0.229618 -0.00709819 -7.36767 10.881 7.79131
95 1 Ar 6.90973 2.32206 0.939009 0.392543 -0.463036 -0.569325 6.81861 -5.14394 -5.65111
454 1 Ar 7.35582 1.44405 1.36793 -1.12095 0.371248 -0.299842 17.5181 -4.03255 -12.9107
462 1 Ar 9.13695 2.00168 0.855119 -0.477703 0.265568 1.03319 -5.05497 -1.78005 -5.02322
99 1 Ar 8.63416 2.0835 1.80924 -2.238 -0.512372 0.351484 -3.32619 6.03615 -1.43542
458 1 Ar 7.96586 1.13599 0.372247 0.170097 0.782225 0.614979 -6.39923 -1.71984 3.76632
101 1 Ar 8.65161 3.05235 0.668857 -0.600011 -0.423755 -0.347619 6.60639 -17.6615 24.689
103 1 Ar 9.79556 2.86342 1.3367 -0.604921 -0.977223 0.105911 -0.931672 -1.47832 -20.3926
464 1 Ar 9.66762 1.72047 1.76857 0.16427 1.44866 1.19404 -35.5754 -12.6121 7.35932
107 1 Ar 10.1329 2.157 0.594469 -1.5366 -0.165841 -0.0474098 3.3804 11.8948 -0.426132
72 1 Ar 10.7607 3.285 0.964491 -0.333814 0.516901 -0.838821 -2.79592 1.90845 4.43939
109 1 Ar 11.7149 2.22929 16.4661 -1.00474 -1.0203 -0.455877 -0.47226 20.3738 13.678
73 1 Ar 12.7179 2.91874 0.772212 1.23308 1.00871 1.03766 13.5108 3.55994 -1.72686
36 1 Ar 14.0285 2.0155 0.511392 -0.38251 0.673493 -0.0477521 -24.0276 -2.80614 -13.6009
3715 1 Ar 14.1025 2.81099 1.17245 -1.34632 1.1706 0.0339864 2.66519 9.15184 7.45132
3714 1 Ar 13.9637 2.9673 16.82 -0.0656173 0.851439 1.78377 5.8642 -0.0960923 -1.77415
44 1 Ar 16.1456 2.11521 1.18195 -0.950819 0.0697092 -1.37785 -10.7793 8.99549 -18.0861
117 1 Ar 15.9691 3.35096 1.00926 -0.402028 0.866577 -0.659083 -1.85399 -14.8249 15.5979
441 1 Ar 15.8307 1.04172 1.13537 1.47129 0.881097 0.289402 25.4679 32.6086 -21.5422
78 1 Ar 15.5077 2.47086 0.203374 0.110579 -1.26742 -0.776645 6.21811 12.1467 -10.6103
525 1 Ar 1.28368 3.29855 1.04395 -0.54216 0.631395 0.983006 4.48955 -1.96342 3.07874
88 1 Ar 2.36356 3.62966 16.0883 -0.398707 0.587538 0.336796 -23.1973 14.837 -32.2984
486 1 Ar 2.81755 3.33997 0.1001 -0.222583 1.02229 -1.18219 43.1422 -0.991665 36.8733
524 1 Ar 3.03067 4.1913 1.09184 -0.975603 -1.89351 0.292973 -30.0169 -14.6822 -5.08912
489 1 Ar 3.91576 2.5261 16.5916 -1.15754 -0.042755 -0.678157 26.7014 9.27148 -22.132
131 1 Ar 4.69513 4.19638 1.0328 0.330008 -0.979248 -2.25937 18.8781 -9.82974 -5.66616
500 1 Ar 6.35912 3.16592 0.594486 1.11751 1.53847 -0.107098 -4.3073 11.378 1.19237
136 1 Ar 5.74869 4.20657 0.710888 -1.05112 0.463448 -0.243084 -4.1877 -2.90825 1.53417
533 1 Ar 6.65633 4.97238 0.368158 -1.24096 -0.587884 -0.741194 1.2565 -6.62893 8.40149
536 1 Ar 5.48193 3.99935 1.83713 -0.855364 -0.791622 1.06839 15.5053 13.5203 -11.6181
537 1 Ar 7.31918 3.25448 1.17702 -0.697508 1.55731 1.25367 9.73123 -16.3602 -35.4443
898 1 Ar 8.23773 3.13489 1.81261 0.139166 0.722209 0.505296 1.64202 5.30639 -20.4398
94 1 Ar 7.69464 2.93878 0.0904245 0.407286 -0.598673 0.791287 6.49894 -6.18943 9.32544
108 1 Ar 10.0017 3.8621 1.62654 -0.00413695 1.50309 0.0797195 3.58652 1.03819 5.66906
147 1 Ar 10.0107 5.71113 0.87484 0.100138 -0.255249 -0.215248 15.5925 -24.3243 2.46295
501 1 Ar 8.94848 3.86064 1.60673 -1.75246 1.09705 0.0595678 -2.38948 10.0527 -3.00947
3747 1 Ar 10.252 4.64496 1.00442 -0.203496 0.916598 0.803823 16.162 -9.79526 -24.264
112 1 Ar 11.6041 4.4437 0.818462 0.236864 -0.426808 1.63532 13.5871 -5.24565 30.5075
106 1 Ar 10.9081 2.74979 0.0574359 0.662349 -0.493947 0.781204 -5.14413 7.29348 -1.23022
110 1 Ar 12.1233 3.24063 16.7195 0.542929 -0.812479 0.0918038 -5.50538 4.63348 -1.54512
113 1 Ar 12.2918 4.39562 16.6509 -1.49888 0.279055 0.582172 27.3001 -1.13807 -0.503186
513 1 Ar 12.739 4.04868 0.76717 -0.0015229 1.04039 1.29202 -17.3825 -47.1052 -5.6913
115 1 Ar 13.8259 3.88057 0.695932 0.410383 -0.487685 1.30392 12.1933 -18.0992 5.36289
514 1 Ar 14.5241 4.59005 1.32436 1.38218 0.468608 -0.736649 -6.60719 -9.57855 -2.49544
114 1 Ar 14.8765 3.53024 0.504757 -0.288738 1.06917 0.122672 3.10708 -1.12379 -3.36369
120 1 Ar 16.5319 4.1117 1.49734 0.0553873 0.176524 -0.104347 10.7934 1.71587 6.26487
118 1 Ar 15.4009 4.32159 16.3839 0.191953 0.0888975 0.7365 -19.7819 16.2479 -5.69282
119 1 Ar 15.958 3.58194 0.0474289 0.103449 -1.65549 1.03245 6.93656 -7.0882 -16.9559
123 1 Ar 2.06215 3.89124 0.619396 0.941127 -0.268555 -1.72172 -8.50547 18.6539 -17.724
163 1 Ar 1.13432 5.52629 1.20289 1.17726 0.284507 -0.0767098 -31.7433 27.0273 22.7648
565 1 Ar 1.88912 4.99058 0.930945 0.889024 0.221804 -1.08814 42.6212 -27.451 -0.0819231
3724 1 Ar 1.02928 4.78102 0.422768 0.11044 -0.0766632 -0.18265 -19.8573 -14.9299 -6.65045
92 1 Ar 3.44434 3.92424 16.2279 0.834297 -0.24653 0.797177 -3.73467 13.2549 -11.4415
128 1 Ar 2.83886 5.31048 0.654413 -1.32692 -0.549961 0.139777 -7.28696 19.375 9.73332
133 1 Ar 4.69929 5.16615 0.484709 -0.172769 0.229287 0.242456 8.87895 -2.84772 -9.98674
526 1 Ar 3.67295 4.97298 0.216657 -0.246188 0.518135 1.25887 13.2632 -13.6121 -22.2186
173 1 Ar 3.89046 5.67099 0.965267 0.65472 -0.262371 -1.12646 10.3103 8.24101 4.71525
575 1 Ar 4.85485 5.36932 1.51764 0.536108 -0.300879 -0.195229 30.667 -17.3907 -13.3303
3736 1 Ar 5.08451 6.31932 0.901421 0.566339 0.789189 -0.527464 -0.691684 -3.86316 -5.17839
573 1 Ar 5.75176 5.36815 0.922453 1.34524 0.202777 0.396647 -4.12172 -9.29245 1.42956
134 1 Ar 6.76608 5.63202 1.43062 0.418552 -0.753825 0.864924 17.7095 -13.4704 11.7563
534 1 Ar 7.76949 4.77276 1.18599 0.67512 -0.886743 0.821239 -21.0855 9.46595 -13.041
535 1 Ar 6.1273 4.94022 2.01186 -0.526351 -0.934289 -1.51301 -1.58704 -15.0574 -15.4841
539 1 Ar 8.07259 5.71382 1.67333 0.211677 0.525553 0.0089508 -6.49304 14.3896 -6.53182
540 1 Ar 8.28233 4.86381 2.20432 0.546904 -0.777759 0.330554 28.1298 -6.94993 -6.37312
139 1 Ar 7.55955 5.69246 0.612744 -0.406785 -0.34468 0.303393 -58.3422 -56.0184 -0.563776
144 1 Ar 8.24986 3.98392 0.466164 0.264939 0.0663738 -0.668394 15.1498 -5.62431 17.1292
541 1 Ar 8.76752 4.87917 1.17646 0.0345977 -1.57704 1.64465 19.8647 3.49161 -4.09088
145 1 Ar 9.89975 4.71376 16.7525 -0.73333 -1.70473 0.0447515 5.83822 0.517303 3.65036
151 1 Ar 11.0002 5.27426 0.610781 0.277683 1.90649 -0.419924 -7.18168 11.3653 11.8488
544 1 Ar 9.15214 5.96256 1.59962 0.249306 0.643878 -1.9527 -0.203316 2.16641 -1.44058
510 1 Ar 10.9728 5.16076 1.70233 0.358231 -0.241845 1.3594 -15.4888 -7.85494 6.45382
153 1 Ar 12.0589 5.3449 0.46489 0.0959019 0.163559 0.860211 1.0435 -0.443931 -10.4266
591 1 Ar 11.8854 5.57883 1.5032 -0.679796 -0.00614666 -0.0348926 14.601 8.06336 4.41194
155 1 Ar 13.3906 4.77879 0.553887 0.828777 -1.76387 1.71687 14.7037 30.1617 -13.3307
550 1 Ar 12.9924 5.78805 0.627853 -0.59208 -0.288116 -0.817623 3.17524 -5.67241 2.1988
553 1 Ar 12.7309 4.85717 1.31997 0.210783 1.22198 0.541698 -20.7551 34.0905 31.6963
159 1 Ar 14.6265 4.65574 0.304782 -0.269245 -0.0990292 1.45494 -2.35457 -2.9129 -13.1149
160 1 Ar 16.3356 5.63514 0.651713 1.22193 -0.613951 0.417249 -31.3203 42.4087 -13.4652
593 1 Ar 15.2331 5.36442 1.08403 0.505738 0.906644 -0.17995 -10.1622 -21.7448 -18.2601
200 1 Ar 15.5793 4.37836 1.12592 0.201582 -1.39224 -0.165602 -6.70615 -8.81129 1.06507
84 1 Ar 0.205351 3.99863 0.31858 0.106736 1.1909 -0.348022 -8.72181 0.215792 6.89872
157 1 Ar 0.173065 5.03049 1.04872 1.22879 -0.318171 0.712657 28.768 -32.0533 18.9453
522 1 Ar 2.25298 6.27751 0.555819 0.587214 1.59967 -0.13348 -10.9206 -10.1145 8.18405
162 1 Ar 1.57721 6.69366 16.5597 -1.73109 -0.240325 -1.57335 -11.1516 1.85736 -2.91042
561 1 Ar 0.734323 6.04181 0.350814 1.02603 0.301418 -0.932246 -8.43128 -1.35436 -2.64802
605 1 Ar 0.789483 7.12271 0.468265 -0.720454 1.09613 -0.121259 18.0934 0.145 5.42517
167 1 Ar 2.69157 7.14346 0.905991 -0.759948 0.00848697 1.49592 2.11203 10.7148 1.48161
566 1 Ar 3.08157 6.14574 1.44365 0.267864 0.530559 -0.0286742 -7.51636 14.8018 3.84834
172 1 Ar 1.88641 6.68123 1.5864 1.39884 -1.83698 -0.401292 10.5141 -35.1029 -57.9631
570 1 Ar 3.07757 7.96089 1.52115 -0.313476 0.327309 -1.82577 13.5087 -14.0222 20.4467
569 1 Ar 3.74038 6.99766 1.24308 -0.913959 -0.167587 1.63316 5.26609 3.43285 -0.475928
171 1 Ar 3.66593 7.22086 16.481 -0.342501 0.96888 -0.935256 4.77677 -17.1029 8.09618
170 1 Ar 4.64855 7.25257 0.454565 1.46351 -1.36651 -1.06021 -8.48724 -47.1619 -13.1688
175 1 Ar 5.07953 8.13794 0.403914 -0.0911869 0.437556 -0.36425 -8.31869 42.7725 23.1558
577 1 Ar 5.86994 6.15025 1.72588 0.682116 -1.5476 -0.487991 -6.17421 2.80676 -8.24733
177 1 Ar 6.45676 6.05646 0.590965 -0.836503 0.656665 0.322548 7.4519 12.5713 -24.4785
538 1 Ar 7.26794 6.61153 16.7933 -1.9215 -0.540433 1.81438 0.550848 -11.1853 -15.8958
574 1 Ar 6.9928 6.74128 1.97788 0.0542393 -0.720984 0.765023 -8.99929 -15.5629 -8.05402
179 1 Ar 8.4301 6.73006 16.3733 0.561876 1.36946 -1.15917 5.2374 18.7061 4.25366
183 1 Ar 8.1888 6.37908 0.609321 0.960844 0.830666 0.276685 56.9553 58.2268 2.42234
148 1 Ar 9.34188 6.3168 0.456142 -0.0234893 0.335053 -0.0339161 -13.6381 11.4259 -19.8518
185 1 Ar 10.1909 5.69402 16.4968 -0.453751 0.0194206 1.54363 11.531 2.37173 20.3511
582 1 Ar 10.2522 7.70796 1.03868 1.34295 -0.258436 -0.518883 -0.871052 -8.24484 -4.26605
585 1 Ar 10.1637 6.5568 1.44964 -0.257869 1.02137 -0.814341 0.473483 11.0024 -0.124001
142 1 Ar 9.09298 6.98423 1.2198 0.237556 -1.25768 0.729883 -4.02257 4.1208 1.48785
546 1 Ar 11.2877 6.32604 0.955956 -0.819987 0.23404 -0.77684 -6.11415 -2.74134 -5.69526
187 1 Ar 11.5835 7.46851 0.415764 1.40704 -0.222036 -0.617193 -8.90934 -6.72119 -16.2445
586 1 Ar 11.277 7.71214 1.4182 -1.31223 -0.0630466 0.916497 -4.13029 11.0665 4.63255
191 1 Ar 12.6416 6.73824 0.82909 -0.416093 0.472756 -1.21368 -16.505 -3.63042 9.88989
590 1 Ar 13.5487 6.85157 1.39776 0.585805 -0.814829 1.19814 7.61663 16.1668 -1.04754
193 1 Ar 13.5285 6.68326 0.313486 0.103352 -0.496659 -0.524826 12.1781 1.47539 -12.2272
3760 1 Ar 14.5442 6.8531 0.698319 0.18521 -1.27377 -0.0513227 19.5238 -25.1949 16.4105
158 1 Ar 0.337688 6.4459 1.51611 0.451283 0.512051 1.45649 9.39681 0.636463 -9.99731
164 1 Ar 15.9126 7.67703 0.779234 -0.641544 -1.38476 0.265174 -8.61046 -9.8976 -5.07346
199 1 Ar 15.5137 6.31332 0.844657 -0.671887 0.887661 0.731176 -9.67525 14.4935 -18.5335
3799 1 Ar 16.62 6.7042 0.548972 0.0183804 -1.36656 0.718901 -1.32914 1.33684 27.3805
208 1 Ar 1.38272 8.96349 0.462469 0.141585 0.196041 -0.655987 -21.5626 11.2257 2.1098
608 1 Ar 1.28456 8.15968 1.12747 0.650687 -1.08157 0.227025 -11.3399 -6.43288 6.84714
609 1 Ar 2.33099 8.23877 0.938341 -0.252223 -0.0774086 0.341852 -5.74153 21.2097 3.71324
211 1 Ar 3.92237 8.55291 1.50165 0.155304 0.754945 0.130499 13.5574 11.7377 -1.71595
210 1 Ar 3.14913 8.83723 0.537649 -0.11239 1.12084 -0.457697 6.4831 20.8125 11.1927
176 1 Ar 3.44284 8.26627 15.8004 -0.24818 -0.520201 0.322342 7.74812 -1.5621 12.0346
610 1 Ar 4.00754 8.03317 0.52805 -0.098049 0.730958 -0.984184 -14.8779 10.0943 5.85866
214 1 Ar 6.01714 8.2079 1.06856 0.0957154 -0.695152 0.219116 -32.8817 22.4435 -9.35464
613 1 Ar 4.93767 7.6255 1.37207 -1.27142 -0.149745 1.47079 5.75234 -0.911084 10.0211
253 1 Ar 5.80648 8.17961 2.23269 -0.47336 0.832261 1.15351 53.6814 4.68412 3.50554
651 1 Ar 5.09884 8.80566 1.21726 0.879512 -0.145954 0.269712 2.74179 1.41866 -17.9792
180 1 Ar 7.10185 6.83131 0.9806 0.12536 -1.58008 -0.149923 11.8554 -9.06399 -13.2864
174 1 Ar 6.00476 6.94955 0.838254 0.53244 1.1123 -0.4176 -11.675 15.2573 29.35
215 1 Ar 6.64461 9.02451 0.560927 0.412974 -1.18943 1.04297 6.91401 5.44915 5.78818
219 1 Ar 8.5375 7.84556 16.5743 0.0301127 -1.13607 0.960671 -2.06886 -4.60806 0.295661
223 1 Ar 8.57598 8.94573 1.16514 -0.36011 -0.409289 0.0999242 18.8742 -11.0759 -5.0216
618 1 Ar 7.86873 8.69922 0.185353 0.425693 0.841621 0.462489 -6.5013 1.8466 0.437903
3828 1 Ar 8.92491 8.81969 16.8124 0.582448 -0.567855 1.14293 4.6236 7.3939 -3.04645
225 1 Ar 9.56349 7.92104 -0.00927581 1.42893 0.195197 -1.1598 12.9647 -5.30748 -5.40378
625 1 Ar 9.66988 8.54588 0.796571 -0.26345 -0.994668 -0.76852 14.7986 32.5066 6.66133
3827 1 Ar 10.0745 8.88932 16.4035 0.829551 0.923804 -0.111019 -14.6332 -1.06463 -1.61416
188 1 Ar 10.671 7.96728 0.0548438 0.726458 -0.500637 0.197925 -2.84296 15.3491 10.7488
227 1 Ar 10.5714 9.25091 0.477119 -1.11458 0.434438 0.22958 -29.6511 -8.20716 -28.0358
192 1 Ar 11.4126 8.66262 0.650785 0.233627 -0.824247 0.831065 9.4203 -12.1231 -4.24916
669 1 Ar 10.6112 8.74591 1.38756 0.142614 0.0244508 -0.911809 3.91043 -7.51496 7.65094
190 1 Ar 12.3287 7.6826 1.07504 -1.08935 -1.57697 0.0844485 9.56717 16.885 5.40185
231 1 Ar 13.1202 8.41059 1.48127 -0.641704 -0.752448 0.355359 -14.3384 20.2516 22.0521
3796 1 Ar 12.4973 8.43374 0.216425 -0.90212 0.0739968 -0.927142 -0.871731 -10.5878 6.40157
195 1 Ar 14.1776 8.60238 0.496085 0.40917 0.786619 -1.08909 -5.70038 4.23925 5.76821
194 1 Ar 13.1411 9.87489 0.490404 2.72243 -0.686694 -0.186853 14.8735 -5.22023 -2.59352
636 1 Ar 13.9719 9.293 1.4031 -0.231007 -0.643952 -1.52915 -7.3008 -5.10825 -5.25487
3795 1 Ar 14.0927 7.97349 1.44506 1.88486 1.31405 -0.581362 -8.43271 -3.49806 5.97525
201 1 Ar 16.735 8.73255 0.234783 0.661245 0.406873 -0.877548 26.9022 10.3687 5.11385
197 1 Ar 14.8879 7.84653 0.772138 -1.29731 -0.894287 2.12607 18.9005 11.1195 3.90945
204 1 Ar 0.420399 9.63188 0.537673 0.405925 -0.91339 0.3225 11.4159 -1.72937 8.75545
243 1 Ar 1.38143 10.135 1.13954 -0.112361 -0.0541244 -0.0975343 -6.03386 17.8552 2.01942
241 1 Ar 16.7672 9.98799 16.4572 0.577474 -2.24691 0.914476 4.64064 5.52459 -3.90563
212 1 Ar 2.97599 10.0704 0.741559 0.620739 -0.502369 -0.224607 19.7337 -5.95104 -21.1333
245 1 Ar 1.92887 9.95872 0.238221 -0.327761 -0.0961976 -1.62371 5.70026 -25.1909 -17.7456
247 1 Ar 2.42135 10.3108 1.50896 -0.730396 0.0246568 0.342397 -8.96116 30.1045 18.1625
249 1 Ar 2.53473 10.8088 16.5691 -1.34943 0.589135 -0.567459 4.81818 -1.08342 5.96907
606 1 Ar 2.04471 9.35628 1.16371 0.977416 0.912018 -0.230714 19.6186 -17.0981 -15.7872
612 1 Ar 4.0794 9.94821 0.534617 0.797717 0.683714 -0.177177 13.3049 -29.1607 26.2229
649 1 Ar 3.7416 10.69 2.75137e-05 0.512539 -0.915774 -1.09034 -9.13644 9.89163 -8.57517
653 1 Ar 4.89598 9.76149 1.59594 -0.211646 0.0512339 -0.957246 -6.7213 -4.13266 -24.3887
689 1 Ar 4.63084 10.7657 1.20126 0.241144 -1.0541 0.874599 0.115282 -1.27487 0.212486
3856 1 Ar 5.05714 10.3454 0.210122 1.36378 -0.511334 -0.415031 -10.0236 -3.45955 18.9641
255 1 Ar 6.78322 9.78569 1.40722 -0.309031 -0.631935 -0.639089 8.0273 11.2586 4.33434
218 1 Ar 7.76061 9.54902 1.04073 0.0301607 1.03694 0.496441 -9.25012 -11.1438 -17.8453
222 1 Ar 9.01195 9.28727 15.6729 0.053247 0.915775 0.634295 -3.38819 0.0287325 5.51308
263 1 Ar 8.71897 10.162 1.11934 -1.0961 1.64406 0.512104 -7.00674 -2.73212 3.40462
3859 1 Ar 8.34515 10.1284 16.7394 0.324489 0.593061 0.801944 -8.27728 -6.18654 3.66724
265 1 Ar 9.25517 10.2075 16.0888 0.121791 0.902369 -1.62555 9.92503 -19.9184 -6.64328
267 1 Ar 10.1701 10.7555 0.371307 0.0842927 0.724306 0.389068 -3.50905 -0.118012 -1.43209
665 1 Ar 8.93151 10.8643 0.294586 1.36051 -0.506566 -0.67609 8.19538 -11.3175 29.1963
232 1 Ar 11.2688 9.77843 0.922859 -0.518003 -1.25502 0.705473 24.9671 17.6698 15.19
269 1 Ar 11.1849 11.6107 0.632666 0.542761 0.224497 -0.954106 -9.97568 -20.7901 5.50636
272 1 Ar 11.9736 10.7265 1.1628 1.46301 0.183833 -0.518079 -5.63564 0.893539 -3.58201
3836 1 Ar 11.5129 9.52367 16.6401 -0.346713 1.07097 0.116994 -1.73223 -2.81484 -0.630275
311 1 Ar 13.0246 10.3442 1.44528 0.688247 -0.22124 0.72696 -6.25785 8.4648 0.901704
230 1 Ar 12.3116 9.25516 0.830442 -2.24704 1.54897 -0.283834 -0.628102 11.0856 4.24227
234 1 Ar 15.188 10.395 0.797969 -0.173903 0.589176 -0.578659 13.9213 5.68401 -1.52629
237 1 Ar 14.7287 8.63595 16.3741 -0.442058 1.04709 0.787138 4.77143 -2.12912 7.84516
233 1 Ar 14.2287 10.0501 0.598637 0.403892 0.792436 -0.850175 -2.29854 -15.0064 1.64578
279 1 Ar 16.6091 10.5481 0.838773 0.210655 -0.0972967 0.845231 -0.938209 -1.68912 -3.54531
238 1 Ar 16.1562 9.57968 0.405569 -0.171648 -0.063712 -0.427046 -19.5954 2.05304 9.71175
244 1 Ar 0.762827 11.0943 1.13366 0.297959 0.856411 -0.633809 -5.44744 -6.09097 7.5759
282 1 Ar 0.993437 11.6554 0.267073 0.63413 -0.310384 -0.173235 -9.28541 3.63501 -1.91292
248 1 Ar 1.78066 10.8822 0.581521 0.466767 1.10864 0.394662 1.49308 37.0163 4.2446
285 1 Ar 2.75692 12.2969 0.77669 -0.452182 1.38427 -0.0358476 0.349121 12.441 -10.2229
287 1 Ar 2.72093 11.2945 0.9381 -0.10053 1.50814 1.312 -2.83506 -17.0228 -0.0674765
331 1 Ar 3.69858 11.7729 0.777002 1.24539 -0.496357 -1.41381 2.84704 -5.00652 42.3532
250 1 Ar 5.61724 11.19 0.86687 0.352887 -1.65927 -0.299607 -11.9147 -0.897948 -1.8797
291 1 Ar 4.48462 11.4166 0.268032 0.738156 0.258142 0.441103 17.6065 -14.9251 -10.7022
693 1 Ar 5.0799 12.2714 0.190541 0.236642 -0.759835 -1.24591 10.2939 3.45407 13.2062
256 1 Ar 6.28311 12.1623 0.116532 -0.536494 -0.35782 -1.24949 -3.02211 -6.95824 7.60546
297 1 Ar 6.63964 10.9136 0.896872 0.884771 0.360559 -0.236153 -9.64412 -6.37679 -4.07257
654 1 Ar 6.16227 11.9906 1.3328 -1.11786 -0.517968 -0.848017 9.8814 6.88313 -10.0637
301 1 Ar 7.26699 11.7504 0.830395 -0.520126 1.40326 -1.23722 -28.361 14.865 35.2953
662 1 Ar 8.43149 11.7201 1.4416 0.562109 0.836424 0.0518006 3.3725 -14.497 -2.0951
3864 1 Ar 8.57626 12.123 16.6044 0.114309 0.286626 0.139759 13.5316 -8.16694 19.1463
266 1 Ar 9.15891 12.4222 1.02091 -2.17772 0.188851 1.13152 7.79184 15.6521 5.84656
666 1 Ar 9.50921 11.6562 0.455123 -0.903177 1.69086 0.749621 17.5322 7.23745 -7.09469
306 1 Ar 10.3935 12.2964 0.492382 -0.849057 1.34907 -1.83154 -4.94585 7.19888 -5.52092
707 1 Ar 10.101 11.6022 1.38638 -0.387574 1.36427 -0.442712 -8.1251 6.05777 -25.1833
309 1 Ar 10.7837 12.6264 1.43555 -0.250282 0.370861 0.138239 -1.3671 -16.138 -5.08966
709 1 Ar 11.4974 11.7442 1.67405 -0.464175 -0.394559 -0.68915 -1.01912 -8.05051 -15.1697
3912 1 Ar 11.6264 12.5186 0.406037 0.775821 1.25365 -1.43209 -2.4627 25.185 5.65691
270 1 Ar 12.1926 11.829 0.866876 1.66032 -0.446019 -0.303785 26.5547 -13.0469 16.6605
316 1 Ar 12.2365 11.0858 2.10595 -0.21397 1.30467 0.949433 3.68268 0.175465 5.74852
313 1 Ar 13.8303 10.7176 16.6448 -0.135577 -0.985382 -1.00647 -3.85518 13.9104 39.8146
315 1 Ar 13.9798 10.8087 1.24289 -0.63322 -0.259589 -0.929535 -0.79635 11.5672 3.54399
317 1 Ar 14.2381 11.8625 1.28728 -1.47882 0.565772 -0.539007 -14.1773 16.1329 -21.3265
353 1 Ar 13.1854 11.4595 1.50389 -0.0890221 -0.35952 -1.35603 -1.11342 -10.0801 -5.95146
275 1 Ar 15.2359 11.4868 1.09428 -1.63385 -1.19436 -0.376842 -0.732089 -9.46263 2.10827
319 1 Ar 16.5292 11.6228 1.19664 -0.16863 0.0474019 -0.441714 -5.42959 0.831305 -11.5379
284 1 Ar 0.685724 12.2735 1.25913 1.10534 -0.701518 0.77445 1.05385 -7.10369 -10.1205
682 1 Ar 1.52526 12.6783 1.99259 0.724945 0.301658 0.965485 0.304562 -0.273714 -3.1781
3923 1 Ar 0.76583 12.8827 0.37474 0.408855 -0.1703 -1.22409 0.793979 -5.48005 -6.94351
725 1 Ar 1.72049 12.4694 0.690003 -0.588848 -0.827854 -0.594939 -12.6044 18.6485 21.6177
727 1 Ar 2.59157 12.4012 1.82483 -0.345198 0.250842 -0.815096 -27.4434 -3.55932 6.02623
686 1 Ar 3.66559 12.767 1.04024 0.120439 -0.86149 -0.120544 3.16348 13.829 10.4569
332 1 Ar 3.64284 13.5224 0.133617 -1.50606 0.965711 -1.19804 0.490553 8.70459 0.403125
327 1 Ar 3.9862 12.5272 0.0582351 -0.477217 0.884569 0.0584946 5.98032 -10.7679 -13.8544
733 1 Ar 5.90568 12.9827 0.735249 0.521449 0.766982 -0.13369 15.3106 -31.0819 12.7088
696 1 Ar 4.65207 11.8327 1.46919 -0.498641 0.892423 -1.30247 -11.5229 20.0119 -32.1395
690 1 Ar 4.39429 14.0904 1.36348 0.299409 -0.758824 -0.857037 6.90707 -17.1574 -17.1025
735 1 Ar 5.41362 13.7941 1.97912 0.697681 0.621121 -1.19681 -53.9461 10.4681 -19.4395
694 1 Ar 6.81514 13.2172 0.063765 -0.154316 1.75781 1.15968 -7.37985 9.75432 21.4793
300 1 Ar 7.49919 12.2989 16.832 -0.26406 1.61179 1.81068 7.50073 12.8738 -18.4506
339 1 Ar 6.88202 13.6407 1.08265 -0.763138 0.0519387 -0.271404 -6.97277 51.5525 -12.6295
295 1 Ar 7.04715 12.7217 1.30056 -0.618458 1.45572 -0.972108 4.26094 -45.067 7.002
302 1 Ar 8.12122 13.6553 0.537965 -2.38221 0.873526 -0.787707 -6.83793 -2.93374 16.6128
343 1 Ar 9.17739 13.9738 0.789303 -0.884565 0.605743 -0.971423 -0.662179 0.487483 -0.957749
3903 1 Ar 8.11373 12.5624 0.927731 -0.347555 -0.154219 0.777545 -10.6972 10.9574 -4.23327
305 1 Ar 10.1042 13.9927 0.165709 0.294461 -0.792706 1.87566 -5.48512 -30.4797 5.36656
308 1 Ar 10.0129 13.215 0.892532 0.183809 -0.419917 -1.82827 11.6627 -0.000669789 -8.05645
3905 1 Ar 9.42093 12.9546 0.00184437 0.481389 -0.793044 -2.65654 -10.3324 0.561387 5.43981
312 1 Ar 12.1881 12.9094 1.22964 0.590086 -0.238516 -0.464878 7.20832 -0.478506 0.672525
307 1 Ar 11.3266 13.4802 0.933845 1.24533 -0.939164 0.827885 -2.38156 -50.9596 -5.66396
3947 1 Ar 11.0046 13.1643 16.7684 -1.78706 -0.266871 0.429893 -39.0316 3.3499 -10.3592
310 1 Ar 13.1476 12.3994 0.994029 -0.563649 0.862754 1.36708 5.05588 5.42813 -8.02124
352 1 Ar 12.301 13.9793 1.01633 -0.661815 0.226787 0.548118 5.20936 -20.2464 -13.8775
355 1 Ar 13.0111 13.2039 1.96742 0.520033 -0.27804 0.778415 18.0552 11.2137 -4.14704
356 1 Ar 13.2904 13.6427 0.590878 -0.0199214 1.16128 -0.0905161 -18.1874 -5.7603 -1.17893
357 1 Ar 15.0163 13.3124 1.24733 0.905707 -1.47769 -0.902065 4.0966 4.68557 -31.4059
318 1 Ar 15.0751 12.4374 1.70508 -0.121684 -0.0159495 0.801725 -3.41169 -18.7131 13.0881
360 1 Ar 13.9809 12.9357 1.48487 -0.934435 -0.754605 -0.487165 2.40995 -5.93691 1.466
322 1 Ar 16.5986 13.033 0.72924 0.17521 -1.51045 -0.108972 -11.8739 2.01276 -1.96286
3884 1 Ar 15.7351 12.3669 0.84349 0.499597 -0.081978 -1.07915 3.68391 8.95669 -9.9572
328 1 Ar 0.402647 13.4024 1.5551 0.300626 -0.979387 -0.0424709 2.08334 3.09588 1.34813
722 1 Ar 0.100285 14.4971 1.42738 1.42845 -1.1599 -0.0943573 -4.78988 2.4732 -5.15056
365 1 Ar 0.463173 13.9127 0.468839 -0.015524 0.382493 0.532218 -10.6231 -7.25127 2.44437
765 1 Ar 0.86407 14.8533 0.495967 0.517534 1.17455 -0.527405 1.79469 7.25833 -4.51825
726 1 Ar 2.60951 13.2897 0.342958 0.935179 0.73429 -0.227903 -13.2274 12.2476 8.67216
367 1 Ar 2.25391 14.2171 1.1124 -0.0586863 -0.0247177 -0.306026 -6.53101 28.0003 -11.0691
766 1 Ar 1.52757 13.6095 0.489382 0.421729 0.137556 0.453819 6.52576 -5.2726 9.33187
371 1 Ar 3.08203 14.6652 0.480086 1.32937 -1.62074 0.445234 3.61711 -15.9861 -18.7217
336 1 Ar 4.01657 15.2367 0.803956 -0.912362 -1.1849 -0.0577789 6.99696 -4.34741 3.57362
732 1 Ar 3.23163 13.7526 1.10508 -0.933007 -1.54327 0.142405 4.61041 4.17427 5.37385
769 1 Ar 2.75192 14.0494 2.04366 0.526798 -0.565763 0.49159 16.4438 15.5238 -21.1244
729 1 Ar 4.61298 13.2143 0.590709 -0.645603 -0.574094 -1.07525 5.9466 2.04034 9.60118
736 1 Ar 5.25135 14.9324 1.50865 1.48064 0.676358 1.2017 -9.68855 -11.5231 -0.57202
334 1 Ar 6.20071 14.9769 0.673606 -0.570618 0.613471 0.865268 -3.96033 -1.52014 -3.58309
740 1 Ar 5.51789 13.8746 0.887194 0.433832 0.484358 -0.409201 -13.2386 30.2689 3.09557
338 1 Ar 7.4227 15.1221 1.00093 -0.555899 -0.688921 -1.5097 -1.55386 13.1301 -0.521178
379 1 Ar 7.73559 16.0754 0.466183 0.536852 0.189451 -0.990058 -2.36929 -3.71375 -4.25267
337 1 Ar 7.28908 14.419 0.249302 0.125298 0.652287 -0.614939 -8.84894 -16.0541 -3.89459
3944 1 Ar 8.28997 14.7924 0.20677 -0.233529 0.662463 0.579429 -1.87313 0.684812 -1.47827
779 1 Ar 8.4243 15.5422 1.07187 1.83883 0.37576 -0.312152 -2.24675 13.7165 -23.5861
345 1 Ar 10.3114 14.371 1.13007 1.41108 -1.44824 0.120117 -5.92477 7.20847 -5.5293
385 1 Ar 11.102 14.2979 0.384541 0.690597 0.330663 -1.50377 12.4271 3.22074 -18.5848
3943 1 Ar 9.30828 15.012 0.332236 -1.39451 1.05623 0.787535 6.37771 -1.77237 -3.68577
347 1 Ar 12.1194 14.9294 0.459152 -1.00307 0.23404 2.07287 -5.63538 -2.68079 -8.76106
346 1 Ar 11.1352 15.2472 0.847876 0.279982 -0.592361 -1.16797 6.1628 -5.89199 46.4572
389 1 Ar 11.2854 15.4021 16.6832 -0.0830743 0.587766 3.06813 9.93124 7.69075 -37.4773
391 1 Ar 14.0492 13.9366 1.18536 -1.72245 0.687062 0.31201 13.8452 14.5302 5.03981
393 1 Ar 14.0658 14.605 0.285613 -0.0888066 -1.40839 -0.976411 0.446322 5.0315 0.216683
350 1 Ar 13.2241 14.6806 1.08485 0.0324191 0.168258 -0.316068 4.5427 -15.2354 -9.76376
3993 1 Ar 12.9997 14.4464 16.7632 -1.22044 0.486069 -0.614864 -3.48659 0.554976 -1.42309
793 1 Ar 14.4289 15.0201 1.45644 -0.402363 0.347879 0.617429 -21.0226 -24.308 31.9547
4000 1 Ar 15.0869 14.3566 0.905873 0.00916634 -0.164576 0.919091 -11.8363 2.66778 31.3331
37 1 Ar 15.4302 14.407 16.7847 0.970572 -0.075378 0.686296 -8.98371 3.17984 10.5389
758 1 Ar 16.1472 14.1998 0.765308 0.72304 0.548331 -1.25782 4.53837 -0.796365 -13.2021
400 1 Ar 16.2687 15.2629 0.735752 -1.50968 -1.49056 -0.731135 2.23152 9.79307 -6.15316
363 1 Ar 0.815219 15.7616 1.09527 -0.170025 -1.58166 0.93411 -1.34894 2.17081 0.73193
399 1 Ar 16.6108 15.9338 1.57421 -1.11933 -0.587116 -0.0973611 -5.90125 -3.98299 8.56151
368 1 Ar 1.72586 14.4605 16.7179 -0.59237 -0.6482 -2.07004 8.03945 11.2637 5.8814
372 1 Ar 2.65882 16.4597 16.4828 0.2439 1.06776 -0.309336 2.05344 -5.05004 0.547465
762 1 Ar 2.06163 15.3202 0.922684 -1.81802 -0.602917 -0.484749 -4.31718 -9.06252 1.32179
409 1 Ar 2.5489 16.1454 1.42377 -1.16887 -0.631474 -1.44861 6.26561 6.18038 -1.01277
370 1 Ar 3.17266 15.8011 0.472591 0.385695 0.203877 0.566118 4.40751 12.5505 9.4968
373 1 Ar 5.24149 15.0819 16.685 0.532227 -0.0448644 0.33047 14.6047 -7.54517 2.23016
374 1 Ar 5.78492 16.7289 1.13712 0.100863 0.545514 0.540712 -15.739 -4.9441 8.61044
376 1 Ar 4.19282 16.3717 0.496532 1.04386 -0.992511 -0.294125 2.46826 -7.62679 3.87531
375 1 Ar 6.66538 15.93 0.826103 -0.795146 0.710139 0.570837 20.8001 7.0169 20.3154
380 1 Ar 7.5967 16.0711 1.55751 0.00207096 1.82277 1.50321 -17.585 -9.83732 -21.7827