ITEM: TIMESTEP
2800
ITEM: NUMBER OF ATOMS
4000
ITEM: BOX BOUNDS pp pp pp
0.0000000000000000e+00 1.6795961913825074e+01
0.0000000000000000e+00 1.6795961913825074e+01
0.0000000000000000e+00 1.6795961913825074e+01
ITEM: ATOMS id type element x y z vx vy vz fx fy fz
4 1 Ar 16.3936 0.0914379 0.256572 1.75278 0.0219116 -1.17608 11.7431 4.28804 8.73404
8 1 Ar 1.01424 0.62122 1.85287 -1.36563 0.290627 0.529176 -20.0562 3.004 24.397
7 1 Ar 1.15788 16.5526 0.657637 -1.68277 0.459263 0.174738 -31.1146 12.6894 11.8373
412 1 Ar 2.3491 16.7135 1.35497 -0.821933 -0.598097 0.514552 0.956954 3.17245 -7.49237
445 1 Ar 2.12391 0.934536 1.7019 1.12724 -0.629163 1.11846 0.231738 -21.9062 34.4072
49 1 Ar 1.63245 0.223769 16.5671 -0.635088 -0.690627 -1.01077 0.386017 -0.215738 3.46427
6 1 Ar 3.2053 0.619818 1.58531 1.14555 0.32144 0.114082 -12.1502 -2.66 -8.61399
410 1 Ar 4.18388 0.876531 1.84623 -0.670069 0.771501 0.0720616 -14.383 10.8056 -41.5102
12 1 Ar 3.48865 1.17573 0.721534 -2.37596 0.473568 -0.0680329 -2.94824 23.632 -8.08417
11 1 Ar 3.32502 16.193 1.02323 0.982394 -0.975754 0.257973 3.90042 19.7291 19.0854
15 1 Ar 4.97392 1.17486 0.956626 -1.0694 -0.0354824 -0.323596 -7.01711 3.99897 -2.46876
53 1 Ar 5.05057 2.16069 1.62088 -1.74397 -0.26345 0.798259 2.78935 6.55399 -12.0111
414 1 Ar 5.38574 1.43713 16.3638 2.20507 -0.208407 0.703195 15.5283 -13.0776 5.40794
457 1 Ar 6.02251 0.997552 1.29546 -0.531003 -0.345503 -0.492228 1.7481 4.77523 21.3911
55 1 Ar 6.90427 3.17914 16.356 -0.393826 -0.0673556 0.106354 0.11197 0.549621 12.8875
417 1 Ar 7.20449 0.821914 0.721222 -1.14219 1.35114 -0.861416 -1.13337 -6.57344 0.296367
459 1 Ar 6.33553 1.36676 0.381589 0.995658 0.661002 1.30358 4.37766 0.76986 -12.7951
18 1 Ar 8.72106 16.708 1.07059 -0.491994 -0.231999 -0.199973 -10.9539 -13.3101 3.29454
24 1 Ar 9.181 0.794329 1.16038 -0.531261 -1.77436 0.524341 9.25929 19.3264 11.1571
461 1 Ar 9.66437 1.79012 1.09589 -0.306571 -0.794692 -0.804602 22.8251 -13.0386 39.2329
28 1 Ar 11.1423 0.0170488 1.05127 -0.589476 -0.0982625 -0.29773 -1.593 17.0576 2.92663
68 1 Ar 9.28925 1.3986 0.284356 0.0872855 2.62008 0.405683 -10.8321 -4.86032 12.6511
27 1 Ar 11.5891 1.22664 1.35839 -0.327596 0.327642 1.22951 -2.18266 8.06262 11.7491
26 1 Ar 10.3626 1.2432 16.645 1.97194 -0.999012 -0.481103 -14.4964 6.59264 -5.37519
69 1 Ar 11.2234 1.72231 0.37979 0.792398 -0.0534151 -0.218866 -0.307442 -7.99342 7.67985
32 1 Ar 12.2888 1.85358 0.708667 -0.0298738 -0.32439 -0.240745 -18.332 5.93467 6.72473
33 1 Ar 12.7841 16.74 0.39195 0.386522 -1.47889 -0.0138333 -24.8001 10.2699 8.3668
30 1 Ar 13.6942 16.384 0.193261 1.51371 -0.801078 -0.162363 -5.03552 -11.6409 14.3819
34 1 Ar 14.3441 0.733288 0.000829349 0.34229 -0.731792 -0.0353116 -11.1482 -3.67369 9.21107
40 1 Ar 14.5075 16.5693 16.4623 -0.528396 -0.0961923 0.519463 25.1532 -5.12441 -17.272
438 1 Ar 15.2559 16.4844 1.80959 0.399692 0.731241 -0.725621 15.5426 20.9236 0.735459
434 1 Ar 14.9798 0.469996 1.12239 0.230979 0.346647 -1.39431 0.118438 -7.67886 14.8002
79 1 Ar 15.3985 0.274668 0.144689 -1.50835 -0.218823 0.188267 -19.9144 -7.5829 2.44158
477 1 Ar 15.0583 1.27381 0.525811 -0.677932 -1.00966 -0.819848 -3.41399 30.1371 -4.54579
41 1 Ar 15.0889 1.11547 16.1459 -0.142664 -0.34306 -0.097394 -21.4831 7.37538 -11.1634
43 1 Ar 15.9004 1.14988 16.6918 -0.911366 0.23137 -1.24562 36.2941 13.0937 20.7078
47 1 Ar 1.41945 0.814934 0.978885 -0.88046 0.822942 0.635706 -3.96116 5.79977 -42.5932
83 1 Ar 0.382536 1.35592 0.395805 0.167916 0.682622 1.26969 -2.77888 15.9807 -0.179924
402 1 Ar 0.569485 1.54461 1.49168 -0.296496 0.0351305 -0.161327 -5.33621 -6.07357 -10.0474
442 1 Ar 1.45444 2.12125 1.22109 0.318351 1.08297 -0.00912233 0.507725 12.0584 -14.8998
449 1 Ar 2.39876 1.20821 0.807644 -0.773812 -0.595432 1.50556 10.5858 20.0841 -28.2695
48 1 Ar 1.13584 3.2284 0.382413 0.41348 -0.0947726 0.828476 20.9748 -9.5841 4.5875
485 1 Ar 1.94944 3.12532 1.32052 0.0746131 0.369976 1.01632 -4.65865 -16.7114 -3.3031
446 1 Ar 2.83144 2.5232 0.936936 -1.26329 0.158497 -0.407619 -17.7224 -23.3191 -1.19842
50 1 Ar 3.44326 3.30269 0.847019 -0.491674 -1.23554 0.0615801 18.5156 17.9717 -6.23825
529 1 Ar 4.8123 3.20445 1.26377 -0.3845 -0.575002 0.716615 9.43478 24.9896 18.5266
490 1 Ar 5.24091 3.15342 0.312994 0.0398874 -1.44183 0.323599 4.79587 -4.14715 -14.0164
493 1 Ar 6.28099 2.19029 16.4868 1.593 0.348032 -0.0520206 1.65105 15.6146 0.680539
494 1 Ar 7.28641 4.08243 0.278042 0.953116 1.54692 0.0589489 -28.6362 13.72 6.11461
456 1 Ar 5.54197 2.09785 0.486012 -0.564074 0.00834968 -1.25105 -3.45214 0.659123 5.99503
60 1 Ar 7.82693 2.16079 0.86939 0.375276 0.690738 -0.841626 -1.63973 1.78742 19.8728
95 1 Ar 6.76879 2.53215 0.725616 -1.83083 -0.914667 0.0867522 7.55102 -4.47744 -12.0834
454 1 Ar 6.90148 1.64453 1.3551 -1.28026 -1.12699 -0.0735124 7.14756 -1.57582 -0.225252
462 1 Ar 8.6665 2.07977 1.44374 -0.588874 1.77157 0.384753 8.06851 2.00541 4.17802
99 1 Ar 7.78537 2.14823 2.16609 -0.148476 0.72567 0.244265 -5.62386 -5.31262 -4.75266
458 1 Ar 8.23308 1.13212 0.474838 0.00328021 -0.501449 0.489458 2.76877 6.53973 -12.399
101 1 Ar 9.35632 2.70951 0.847269 -1.21319 1.86217 -0.636033 -5.39279 21.8775 -4.92184
103 1 Ar 10.5211 2.79662 1.05224 2.29476 -0.959005 -0.114171 -5.05113 50.9697 -19.6662
464 1 Ar 9.5649 2.25941 2.05853 -0.559199 -0.652964 0.795413 1.21435 -5.23851 4.26385
107 1 Ar 10.2589 2.16711 0.320905 -0.899769 -0.11432 0.198449 -9.7388 -1.84887 -12.8456
72 1 Ar 11.3459 3.52926 0.970253 -0.525051 -1.38089 0.510698 0.750683 8.25599 7.87012
109 1 Ar 11.8413 2.09843 16.435 -0.249791 -0.0142055 -0.545867 2.38501 21.5045 2.94767
73 1 Ar 13.0347 2.47545 1.09782 -2.17203 -0.475505 0.996321 -3.14208 0.355216 6.47656
36 1 Ar 13.9248 1.93197 0.93564 -0.227679 0.880798 -0.0529447 0.396731 -6.28891 27.6978
3715 1 Ar 14.1067 2.76587 1.66366 1.17261 -0.957055 0.983231 -0.470615 -29.3198 17.1143
3714 1 Ar 14.0679 2.85883 0.5731 0.618892 -1.0453 -0.5025 -1.48373 20.1949 -8.69484
44 1 Ar 16.0371 2.07568 0.677202 0.33064 -0.220894 -0.773263 -6.03489 -2.97747 5.83012
117 1 Ar 15.9842 3.21153 0.932684 0.703936 0.500457 0.550455 -4.75493 3.17383 1.65445
441 1 Ar 15.9745 1.08993 1.05236 -1.05528 1.40064 -0.384575 6.30221 -6.49025 -2.05032
78 1 Ar 14.9168 2.56373 16.8018 -1.13192 -1.44208 0.420556 13.1458 -2.86322 -0.527457
525 1 Ar 0.829403 3.37367 1.49698 1.68456 0.222864 0.326307 8.632 -2.78358 -8.0466
88 1 Ar 2.23302 4.32278 16.1544 1.18074 -1.43421 -0.0247937 4.21945 4.61844 -0.607965
486 1 Ar 2.08325 3.38052 16.5813 -0.81811 0.983597 -0.305735 -2.78986 -9.67891 4.81532
524 1 Ar 2.96731 4.12325 1.376 0.322118 -0.849941 0.780896 -4.67765 1.67226 13.1745
489 1 Ar 4.19353 3.19132 16.6674 -1.94582 0.609239 -0.615666 -0.804408 -4.98374 1.09952
131 1 Ar 4.82244 4.47979 1.39588 0.191687 -0.948613 0.627621 -9.25231 15.2957 -13.7633
500 1 Ar 6.31547 3.52875 0.535583 -0.17586 0.273227 -0.656846 28.1135 -11.9925 -1.78498
136 1 Ar 5.51023 4.07984 0.713772 0.547263 0.400819 1.01967 -16.2137 14.0912 0.785569
533 1 Ar 6.4243 4.74559 0.421777 -0.0740247 -0.043073 0.787064 -8.90459 -38.6946 25.11
536 1 Ar 5.26542 3.82782 2.01682 0.529643 -0.740054 -0.825318 16.9737 2.07848 -6.72801
537 1 Ar 7.53192 3.914 1.45389 -1.29014 0.94603 0.194547 -41.9646 -0.410296 32.4732
898 1 Ar 8.28465 3.15746 1.45645 -0.732459 0.189075 0.178279 7.2652 -9.89659 4.1948
94 1 Ar 7.69338 3.15901 0.426438 -1.09475 0.309898 -0.176566 1.62766 -24.1256 -1.67524
108 1 Ar 10.2687 3.65396 1.60237 0.58342 -1.23899 1.26634 -1.7518 8.43829 5.05219
147 1 Ar 10.6791 5.43443 0.599706 1.56518 -1.04044 -0.0983078 -3.41667 -0.110514 -2.9172
501 1 Ar 8.88386 4.19275 1.6498 -1.80249 0.31589 0.890057 5.87671 -5.55393 8.10039
3747 1 Ar 10.8306 4.53169 0.974052 -0.0888585 -0.595794 -1.49033 -11.3556 -15.6306 37.2935
112 1 Ar 11.7211 4.51263 1.40697 0.218075 -0.473213 0.894441 37.3615 -13.323 0.700669
106 1 Ar 11.1474 2.85266 0.20452 1.99752 -0.886768 -0.981518 4.71566 -10.4446 -9.67928
110 1 Ar 12.3092 2.84752 0.253752 0.207203 1.76142 -0.512561 2.81705 8.37568 4.38629
113 1 Ar 12.4186 3.98358 0.756589 -0.844019 -0.709577 -0.957816 -0.694504 -4.13177 4.46478
513 1 Ar 13.4499 3.40302 1.27918 0.486475 -1.03927 -0.110531 -15.7878 36.3806 -10.3069
115 1 Ar 14.2118 4.0467 0.781825 -0.40124 1.33706 1.3865 -4.04424 -13.2768 -15.1769
514 1 Ar 14.5239 4.75326 1.45701 0.402626 -0.929902 -0.233397 11.0959 5.60547 5.92777
114 1 Ar 15.0765 3.52392 0.405143 1.01703 0.450555 1.05264 -4.15122 9.87158 6.03101
120 1 Ar 16.7449 4.13017 1.20446 -0.269516 0.856294 1.56435 0.314385 -2.28482 8.86307
118 1 Ar 15.5708 4.47429 16.314 0.208047 -0.143008 -0.617169 7.57873 -21.4528 13.0812
119 1 Ar 15.7705 3.32423 16.4235 0.224963 0.802628 -0.948942 -10.6169 11.2509 -15.396
123 1 Ar 2.18567 3.89137 0.722958 -1.28623 -1.72836 -0.555644 -3.33195 21.7665 -17.9613
163 1 Ar 1.36674 5.62345 0.816188 -1.53566 0.686452 0.00560901 1.80811 4.59834 1.07992
565 1 Ar 1.95597 4.85977 1.41045 0.501485 0.575682 -0.790931 7.11505 -0.613985 -3.12456
3724 1 Ar 1.0686 5.17259 16.6572 -0.648984 0.101176 -0.455469 -5.50795 8.43472 15.5701
92 1 Ar 3.15165 3.61103 16.4061 -0.876717 0.857972 1.03967 1.2201 1.79891 -0.754917
128 1 Ar 2.38064 5.96175 1.06605 0.62929 0.297744 -0.402675 2.86979 -12.4057 -5.51005
133 1 Ar 4.9214 4.97862 0.401391 -0.485691 1.55535 1.56867 -0.159922 0.0155446 3.61938
526 1 Ar 3.12817 5.42061 0.204214 -1.07933 -0.970244 0.785901 10.9642 15.948 9.35404
173 1 Ar 4.23531 6.5045 1.69141 1.08408 0.363364 0.82819 9.62866 -13.9241 -0.447906
575 1 Ar 4.90791 5.56131 1.72489 1.22516 0.0637984 1.06833 -1.79162 4.5421 -12.9046
3736 1 Ar 5.44082 6.24811 1.00316 -1.30839 0.95455 -0.892453 -20.1755 -19.2958 47.7256
573 1 Ar 5.78921 4.99798 1.18158 -0.809113 0.0999847 -1.26972 -9.88136 6.41971 12.8489
134 1 Ar 7.06826 5.20503 2.11884 -0.37795 1.62761 -0.424053 -15.5205 -8.52666 -7.60883
534 1 Ar 7.23336 4.95205 1.03246 0.342301 0.64899 0.0711973 -1.92706 0.0252453 24.2412
535 1 Ar 6.0974 4.81933 2.40081 -0.804106 -0.411386 0.536785 14.0496 -13.7748 -15.1319
539 1 Ar 8.15936 5.75245 1.24779 -1.40606 -2.24978 -2.26699 23.9795 -8.08813 -42.8544
540 1 Ar 8.04728 4.79125 1.8419 -0.651154 0.0600908 -1.73214 -12.0468 -3.98804 -1.27526
139 1 Ar 7.18759 6.04987 1.08334 0.664541 0.409145 -0.545595 -20.0859 -13.8216 13.4839
144 1 Ar 8.21999 3.98598 0.788095 -0.107706 -0.339972 -0.175153 39.46 7.49156 -37.0011
541 1 Ar 8.69894 4.89135 0.90226 0.859673 -0.349985 0.0274901 7.00237 20.2192 3.68381
145 1 Ar 9.66957 5.08196 0.343772 -1.57228 -0.628272 -0.786812 17.1637 -18.085 9.92344
151 1 Ar 11.7053 5.71647 0.873749 0.332193 -0.00499046 -0.395704 4.45406 -11.2986 -4.1696
544 1 Ar 9.64752 5.89457 0.943757 -0.277802 0.0951877 0.415325 -17.6604 -3.91306 8.82085
510 1 Ar 11.1806 5.32269 1.68734 1.41031 1.07715 -0.249573 -16.6791 16.0785 13.2807
153 1 Ar 12.5953 5.01209 0.662444 -0.806374 0.412234 -0.75038 -33.7777 24.8973 -5.94589
591 1 Ar 12.3588 5.33186 1.71548 0.832793 -1.35299 -0.175032 -0.0578025 7.85354 -3.58885
155 1 Ar 13.4564 4.57976 0.417491 -0.61044 0.25204 -0.0437827 -2.93192 16.0177 7.31049
550 1 Ar 13.1114 5.82362 1.1401 -0.225026 -1.24028 -0.218046 -2.89644 -11.0723 -12.4709
553 1 Ar 12.9667 4.48766 1.46483 -1.03129 -0.635997 0.307139 13.84 -9.73495 20.0996
159 1 Ar 14.4095 4.67715 16.7528 -0.5155 0.241834 -0.91413 23.59 8.83154 21.4083
160 1 Ar 16.2119 5.76775 0.393805 0.501983 0.177147 -0.718805 -0.711168 12.1585 -8.72503
593 1 Ar 15.2273 4.80481 0.555287 -1.18562 -0.4902 -0.969694 -11.6365 -5.497 -11.1433
200 1 Ar 15.5462 4.19305 1.37748 0.367248 0.337455 1.63901 -3.1013 -11.3572 5.18587
84 1 Ar 0.252282 3.69967 0.255794 -0.387435 0.489477 -0.717526 -5.74473 -2.59907 -1.41263
157 1 Ar 0.390666 5.2245 1.02286 -1.14585 -0.465201 -0.254754 -5.33642 -7.26398 -0.333681
522 1 Ar 2.13585 6.81003 0.608376 -0.034275 0.120539 -1.45836 -11.3116 14.2521 -27.8131
162 1 Ar 1.82683 6.81291 15.865 0.289399 -0.197139 0.777954 -5.86168 -0.475545 -7.94994
561 1 Ar 0.62268 6.19893 0.127304 0.254776 -0.0326104 0.829898 3.57125 -15.696 -6.80514
605 1 Ar 1.05595 6.76276 0.906321 -1.11708 -0.679209 0.275371 5.09525 1.39877 7.02543
167 1 Ar 3.25709 7.56445 0.901104 0.890491 0.621603 -1.08815 -18.2307 -0.113056 9.7406
566 1 Ar 3.17407 6.36208 1.86803 -0.693179 -0.144603 0.391916 -3.28858 13.5855 2.26825
172 1 Ar 1.68068 6.15702 1.82986 0.469743 -0.00114533 0.884256 -1.19019 -21.6376 1.55943
570 1 Ar 3.13169 9.00412 1.64276 -0.705557 -0.911607 -0.0388526 2.83358 -27.7352 8.25305
569 1 Ar 3.80703 7.37377 1.95486 0.514222 -0.633188 0.101722 -18.2907 8.41899 5.24539
171 1 Ar 3.52084 7.84701 16.687 -1.6017 -0.593201 -0.0875283 2.9977 -1.22355 -6.20064
170 1 Ar 4.27523 7.10508 0.364709 -0.80723 0.287201 -0.288626 0.756565 9.9584 26.1104
175 1 Ar 5.26396 8.64052 1.51058 1.75465 -0.488843 -0.283503 -9.68911 -4.23744 10.7901
577 1 Ar 6.22271 5.83292 1.68554 0.985321 -0.785187 -0.230556 -3.51493 -8.44127 4.24111
177 1 Ar 6.26693 6.77171 1.19093 -0.0781574 -0.246689 -0.713249 21.7779 17.4991 11.8161
538 1 Ar 7.26688 6.09189 16.7809 -1.67772 0.175307 0.348361 -22.3359 15.6761 14.4647
574 1 Ar 6.87202 6.45423 2.23131 -0.765865 0.224961 -0.261698 -20.6933 -16.1198 -16.7359
179 1 Ar 7.32044 7.30257 16.5501 -0.433938 0.0477678 1.64083 2.13379 10.1169 -19.7533
183 1 Ar 8.49934 6.61158 0.658567 0.481345 0.410839 -0.797578 5.25738 -3.34554 2.98794
148 1 Ar 9.72166 6.58206 0.218561 0.346893 1.71502 -0.86059 -40.1759 13.6914 -10.2717
185 1 Ar 10.3206 5.93239 16.529 1.85831 1.67881 0.251671 2.12294 -15.6109 -19.1362
582 1 Ar 10.3908 8.0768 1.17277 0.349689 -0.443693 -0.107154 -11.9371 -0.182168 -10.6773
585 1 Ar 10.0058 7.05568 1.30327 -0.344118 0.75184 -0.50927 -3.43445 -0.0881251 -1.79702
142 1 Ar 8.97825 7.37923 1.60968 0.326519 -0.377127 -0.9087 -3.46111 -2.09897 4.18148
546 1 Ar 10.6553 6.43339 0.630689 -1.93618 -1.3514 0.652004 12.6031 11.2457 28.6298
187 1 Ar 11.7743 7.22963 0.298024 -0.748184 -0.736484 0.293481 -4.31872 -10.2857 1.01536
586 1 Ar 11.0838 7.27099 1.25854 -0.854039 -0.104713 -0.264868 -3.29609 41.6451 -28.8007
191 1 Ar 12.4091 6.22276 0.203645 -1.15594 0.380888 -1.4126 5.58584 -5.86907 -6.65015
590 1 Ar 13.3657 6.80712 0.95235 0.685895 0.310435 0.778742 3.24608 18.4472 -21.5147
193 1 Ar 13.8752 6.6796 16.7857 0.102686 -0.830756 0.335991 2.50036 -4.97455 2.22156
3760 1 Ar 14.4047 7.08187 0.921848 -0.648596 0.68241 0.482865 -20.2083 -1.58235 -2.95899
158 1 Ar 0.128991 6.26673 1.07394 -0.436256 0.40859 -0.914549 -4.05058 -1.16221 9.884
164 1 Ar 15.7602 7.90677 0.462941 -0.191493 -0.294034 -0.33318 1.53875 7.65187 36.9205
199 1 Ar 15.3762 6.85704 0.827882 -0.617466 -2.1186 2.09632 18.0124 10.4948 -14.7678
3799 1 Ar 16.4964 7.13613 0.598479 -1.11572 0.124215 0.176813 -0.799456 1.21917 4.22103
208 1 Ar 1.45822 9.26414 0.31599 1.63389 0.612641 1.34977 4.63617 34.6081 7.60365
608 1 Ar 1.51552 7.93229 1.11269 1.09345 -0.766269 0.103679 -6.90423 -8.86485 -7.93413
609 1 Ar 2.38875 8.4716 1.10188 0.0190528 -0.539769 1.29127 2.25049 -1.35846 16.783
211 1 Ar 4.00837 9.16022 1.10761 -0.885419 0.313886 0.0899408 15.0295 2.37148 8.31647
210 1 Ar 3.32005 8.55981 0.635086 -1.21984 -0.229085 1.3031 -1.15106 13.2195 -11.4189
176 1 Ar 3.58672 8.03662 15.5879 0.687987 -0.913527 0.959866 -3.74993 0.337227 -1.74297
610 1 Ar 4.16158 7.97345 1.07057 -0.706186 0.287233 0.547654 -11.5115 -3.79358 22.9165
214 1 Ar 5.90707 7.73779 1.65929 1.41784 -0.590797 -0.979909 -5.64917 -4.75051 0.105247
613 1 Ar 4.94209 7.23254 1.54839 0.292121 -0.822053 0.909524 6.96721 8.68828 -6.11873
253 1 Ar 5.64864 8.67423 2.5151 -0.327492 -0.289916 -0.142457 3.88356 -12.9542 -8.02415
651 1 Ar 6.00444 9.40249 1.29356 -0.285361 -1.22684 1.78608 8.87726 -7.72012 15.9273
180 1 Ar 7.44388 6.93748 0.700882 -0.242483 -0.919161 0.650388 11.2164 10.6409 11.1173
174 1 Ar 5.51368 7.39527 0.564517 -2.05234 0.0743313 0.283626 5.31984 2.33531 14.7276
215 1 Ar 6.94883 8.75747 0.849968 0.265093 -0.29556 0.757883 17.7406 -11.1579 13.167
219 1 Ar 8.20768 7.53439 0.22109 0.894809 -0.23691 -0.164147 21.9998 -10.9716 -10.6713
223 1 Ar 8.71852 9.11399 0.497553 0.725798 -0.45743 0.266937 -4.52378 -0.309472 62.8473
618 1 Ar 7.833 8.4616 0.34015 0.239066 -0.135859 1.17645 -7.65328 5.08678 -31.1744
3828 1 Ar 8.91835 8.34196 16.6553 0.635846 -0.138349 0.986773 10.3151 -13.4823 -6.97635
225 1 Ar 9.4991 7.63426 0.365313 -0.908134 1.15693 0.193037 12.6604 -4.48174 4.52457
625 1 Ar 9.70666 8.82574 0.793233 1.42406 0.273202 -0.458572 -2.93454 -9.96541 0.950268
3827 1 Ar 9.94746 8.88996 16.5165 0.385642 -0.381157 -1.11331 -4.88972 -14.2953 -19.2801
188 1 Ar 10.5796 8.26614 0.199194 0.00645025 0.665366 0.647574 4.50955 0.833355 -2.642
227 1 Ar 10.8379 9.77493 16.5475 -0.943161 1.73084 -0.783822 -6.88164 -6.0576 12.6016
192 1 Ar 11.6573 8.26169 0.610961 -0.805603 0.485637 0.461544 -6.43011 -5.66039 -0.0257326
669 1 Ar 10.8198 9.09922 0.807695 -0.397588 0.790911 -0.689117 7.52072 0.641394 1.17896
190 1 Ar 12.2605 6.56788 1.15327 0.0213405 -0.898871 -0.0943614 14.8362 16.0772 11.9002
231 1 Ar 13.1126 8.65771 1.50458 0.375014 -0.484965 1.36868 -32.2019 6.95968 0.47205
3796 1 Ar 12.6719 8.41294 0.213413 -0.668473 2.27622 -0.952882 -8.52538 11.5633 -4.27231
195 1 Ar 13.5175 8.99253 0.326269 -0.150307 0.597712 0.831176 23.5396 -17.0228 18.4349
194 1 Ar 13.5153 10.3346 0.37469 -1.7322 -1.4048 0.897045 -11.5582 5.41227 -7.89309
636 1 Ar 13.7267 9.51867 1.28794 0.356417 -0.546556 0.244143 -23.4841 21.8139 18.3797
3795 1 Ar 14.0969 8.58124 1.46986 -1.12134 -1.35664 -0.410452 19.6482 17.2774 35.5728
201 1 Ar 16.5212 8.56358 0.254257 -0.269087 -0.435745 0.149539 13.6382 5.97695 5.28259
197 1 Ar 14.7518 8.08521 0.938834 -0.960636 -0.677847 2.06168 26.6148 -12.1116 -20.1912
204 1 Ar 0.449707 9.47024 0.652657 0.195492 1.05495 -0.213477 0.902716 4.30875 -7.22893
243 1 Ar 1.26358 10.1682 1.09972 -0.729497 -0.802396 0.641318 -2.39043 -2.43024 9.42174
241 1 Ar 0.214306 10.2133 16.5287 0.592338 0.369065 0.285141 5.34002 -11.1983 10.9015
212 1 Ar 3.02129 10.6526 0.993023 -0.403698 0.879812 1.6465 5.20583 -8.72958 -9.63999
245 1 Ar 2.13784 10.2296 0.471384 0.38961 -1.41539 -0.958116 1.95835 9.16375 -4.98454
247 1 Ar 2.18531 10.7564 1.60944 1.1549 0.316979 -1.30042 -8.79215 3.32304 -17.297
249 1 Ar 2.66587 11.2106 0.129473 0.973505 0.167647 -0.674755 -28.9087 18.9862 11.2443
606 1 Ar 2.38851 9.65696 1.3827 -0.704018 0.624911 -0.425773 -14.3595 9.12914 -1.04002
612 1 Ar 3.51843 9.68468 0.303179 -0.00875582 -1.06013 -0.0802444 -44.0452 -5.56781 36.8225
649 1 Ar 3.56891 10.8315 16.7603 0.211826 -0.666087 0.237819 36.3603 0.492263 6.61943
653 1 Ar 4.9683 9.62008 1.21318 1.14566 -0.66644 0.701347 -10.2284 -2.02841 10.0448
689 1 Ar 4.10296 10.3085 1.11542 -0.768717 0.233095 -1.26449 -0.70316 3.04435 -0.612549
3856 1 Ar 4.68809 10.6692 0.245797 -1.57324 0.622566 0.720945 -9.2602 -3.01645 10.9293
255 1 Ar 7.11127 9.6161 1.47972 -0.134131 1.72898 -0.0920292 -0.764119 0.485862 6.16531
218 1 Ar 7.74177 9.57983 0.548144 0.202056 0.538298 -0.432595 -1.52663 12.5874 3.7655
222 1 Ar 8.7895 9.35968 16.3802 -0.212542 -0.735263 1.5396 -17.4917 11.7659 -54.4134
263 1 Ar 8.9108 10.118 0.897914 0.842754 0.454036 1.447 -1.68442 11.602 -9.49407
3859 1 Ar 8.88075 10.4033 16.2328 1.06777 -0.740311 -0.143035 2.66928 -11.7042 -0.236049
265 1 Ar 8.40817 10.5211 14.9065 -0.984317 0.747544 -0.715857 25.6239 -6.2539 6.03297
267 1 Ar 11.0159 10.6141 0.571262 -0.309636 0.116866 0.504443 -11.525 -1.92219 9.95464
665 1 Ar 9.9469 10.7248 0.30141 0.474075 -0.410441 0.818958 12.3793 -7.45542 10.4013
232 1 Ar 10.8809 10.1914 1.72624 -1.28926 0.235221 0.0251118 7.21992 -2.54474 -3.24276
269 1 Ar 11.3022 12.1775 0.86922 1.21237 -0.865448 0.674375 -19.4177 -2.74637 11.5956
272 1 Ar 11.679 11.4071 0.262052 -1.26943 -0.287614 -1.21091 7.994 -8.32103 -3.15243
3836 1 Ar 11.8452 9.12285 0.0161224 0.457777 -1.19017 -0.761772 -15.3275 2.60622 -16.019
311 1 Ar 13.2041 10.4683 1.34699 0.278596 0.0477959 0.719338 -3.35939 0.422362 15.4955
230 1 Ar 12.4137 9.26614 0.870477 -0.527077 0.273848 0.108584 13.9562 2.93195 -20.1907
234 1 Ar 15.3363 10.0243 0.878086 0.492776 -0.813308 -0.456371 -1.95826 -3.67329 -1.2408
237 1 Ar 14.3569 8.73089 16.4517 -1.53372 1.02678 -1.13103 9.6592 9.60351 11.9082
233 1 Ar 14.4566 9.31616 0.650119 1.29227 1.02187 0.946653 21.5661 2.57019 -20.0912
279 1 Ar 16.7374 10.4692 0.735325 0.669184 -0.629808 -0.355705 5.89616 -12.849 -7.06683
238 1 Ar 16.2473 9.63897 0.258775 0.397677 -0.986251 -0.202741 -6.72127 0.562775 -3.22546
244 1 Ar 0.367332 10.952 1.54111 1.47801 0.317699 1.23858 5.01901 -2.60754 5.94006
282 1 Ar 0.462898 11.4725 0.616644 -2.77149 0.0226813 0.911855 2.77147 1.21798 -7.53234
248 1 Ar 1.81686 11.2348 0.740329 0.0145949 0.823591 -0.190945 -3.73494 -10.2105 -4.47566
285 1 Ar 2.58836 12.2588 0.492863 0.178749 -0.342904 -0.222925 12.9561 0.70828 -1.41446
287 1 Ar 2.44292 11.7601 1.56547 1.49714 0.532758 -0.311808 15.1946 12.1089 -6.14683
331 1 Ar 3.55606 11.5837 0.748779 -0.338439 0.548642 0.223442 -9.35905 -9.30454 -5.57625
250 1 Ar 5.02982 11.0835 1.1925 -0.484352 0.0531054 -1.2425 -5.79673 -6.28519 12.5372
291 1 Ar 4.31773 11.5178 16.1605 0.309317 -1.22927 -0.940884 -9.98466 -8.06211 -0.588841
693 1 Ar 5.40375 11.8091 0.569721 -0.154921 -0.621618 0.208203 2.88022 14.2566 -6.96403
256 1 Ar 6.35443 12.2739 16.7353 1.08541 0.348572 0.147421 1.6129 -0.0903847 -0.674872
297 1 Ar 6.82004 10.5523 0.99619 1.26475 -0.99546 0.103927 -15.4447 2.85457 -19.6621
654 1 Ar 6.02852 12.3775 1.5304 1.47129 -0.120583 0.0989277 3.51351 -1.92826 -7.58639
301 1 Ar 7.28683 11.5368 0.253089 0.75589 0.696796 -1.05316 -22.3488 8.04792 -0.173002
662 1 Ar 8.89528 11.3084 0.769872 -0.628023 0.475685 -0.390349 0.524108 -4.04285 -1.65989
3864 1 Ar 8.60609 12.0478 16.677 1.0916 1.56392 0.467844 -14.3482 -8.36005 3.47119
266 1 Ar 8.54478 12.8631 0.719333 -0.994195 1.33825 0.981132 -0.902672 -3.63202 4.16814
666 1 Ar 9.83889 12.2198 0.282165 0.789072 0.466578 0.5064 -10.8052 12.5359 -7.47948
306 1 Ar 10.034 13.2447 16.4779 0.272679 -0.439745 0.851499 -0.221773 -53.952 -14.3773
707 1 Ar 9.36146 12.3809 1.24797 -0.721485 -0.846127 0.0468779 14.0013 10.2528 -25.9198
309 1 Ar 10.7841 12.9128 1.66163 -0.605337 -1.13624 0.900258 9.08567 -9.97249 -12.6644
709 1 Ar 11.5488 12.2561 2.39035 0.550861 -0.458446 0.0261538 -12.2663 7.80419 -1.1103
3912 1 Ar 12.1541 12.8365 0.537919 -0.441568 -0.909493 0.118689 -3.26109 23.5587 -13.7798
270 1 Ar 12.232 12.0378 1.15571 1.63713 0.0919645 0.316243 15.5004 -24.3125 31.8249
316 1 Ar 12.1895 11.4345 2.5244 -0.336144 0.0117552 0.423797 -4.04891 4.17797 1.15428
313 1 Ar 14.5452 10.6739 16.7237 -0.344497 -0.319703 -1.2895 2.30749 -5.4313 5.3232
315 1 Ar 14.2438 10.4976 1.10336 0.419507 -0.695227 0.315755 -5.30397 -13.2536 12.716
317 1 Ar 14.3354 11.8074 1.17575 0.297274 -0.742505 -0.717383 -2.25537 -0.496899 3.32319
353 1 Ar 12.9745 11.5346 1.92057 -0.0270155 2.34441 -1.85377 23.8166 -1.86748 -19.0728
275 1 Ar 15.0175 11.0562 0.811115 -0.00710827 -0.394266 0.477786 22.4869 7.72507 -21.4542
319 1 Ar 16.1115 11.2847 0.714443 0.744923 -0.406134 -0.689603 -1.54514 4.7332 25.9088
284 1 Ar 0.475873 12.2789 1.36741 -1.64698 0.557662 0.842313 4.36193 -0.987417 7.86476
682 1 Ar 1.18499 13.217 1.81143 0.43141 -0.214753 -0.927672 5.29734 0.338516 2.32216
3923 1 Ar 0.663968 12.3339 16.7079 -0.51907 0.430386 -0.756359 5.07861 8.8862 6.71553
725 1 Ar 1.5626 12.2269 0.684877 -0.342245 -0.943139 1.16114 -18.0705 -2.10539 7.58742
727 1 Ar 1.87461 12.176 2.49781 0.216259 -0.0849359 -0.00455178 -12.8452 11.255 -11.437
686 1 Ar 3.81753 12.58 0.442818 0.264388 -0.774022 0.0108608 -27.0507 -2.07967 -0.0328921
332 1 Ar 3.64461 13.621 0.0366019 0.128014 2.25478 -1.67226 14.002 2.61501 -22.9893
327 1 Ar 4.59613 12.4211 16.586 -0.159247 -0.0216744 -0.441881 3.08105 -5.93689 8.76542
733 1 Ar 5.59567 13.0992 0.496257 -0.808598 1.56611 -0.0425675 3.05711 -15.4778 23.045
696 1 Ar 4.38778 12.0157 1.20667 -0.0570438 1.49441 -1.65778 10.3311 6.51325 8.11937
690 1 Ar 4.03221 13.9517 1.1717 -0.981803 0.539753 -0.294125 1.99931 -26.972 -26.2575
735 1 Ar 5.03394 13.9581 1.57167 -0.116751 -0.374594 -0.770449 0.988598 3.62052 -1.27119
694 1 Ar 6.47567 13.4439 0.223692 -0.109251 -0.824011 -0.0776707 40.8849 -11.3726 18.5058
300 1 Ar 7.6027 12.594 16.5922 0.762583 -0.780609 -0.473512 2.81265 -0.625974 9.96
339 1 Ar 6.99086 14.1225 1.0178 -0.510428 -0.793952 -0.76577 9.27328 -4.79405 -2.52036
295 1 Ar 7.02208 12.5803 0.771929 -0.662049 -0.208244 0.787079 1.9754 1.07652 3.72324
302 1 Ar 7.79215 13.5834 0.400549 0.0955374 -1.68487 0.944434 0.111534 1.88228 -1.04863
343 1 Ar 8.87657 13.9061 0.654607 0.243917 1.17733 1.47665 -3.2204 4.9838 -6.95345
3903 1 Ar 8.0071 11.9188 0.874817 -1.0734 -0.801048 0.213741 4.73397 8.03691 4.52279
305 1 Ar 9.80436 14.0907 0.0821327 -0.836887 -0.0774298 0.0347743 -21.6977 33.9281 2.72072
308 1 Ar 9.90806 13.3939 0.930666 -1.31357 0.919332 0.697501 3.24294 -17.2586 -2.37311
3905 1 Ar 8.9381 13.003 16.5326 -0.270219 -0.150075 -1.57768 7.32366 17.4765 -7.9879
312 1 Ar 11.823 13.0644 1.58151 -0.694522 -1.01722 -0.971234 5.11239 3.79046 -3.38356
307 1 Ar 11.1521 13.966 0.982721 0.0489223 0.35392 -0.456056 2.03595 -22.5548 9.60233
3947 1 Ar 10.8356 12.9238 0.394437 -0.0013251 -0.108561 -0.250522 -11.2215 17.2634 -9.16854
310 1 Ar 13.1818 12.4289 1.16023 -0.940884 -0.166756 -0.33739 -12.5643 -7.04612 -10.5217
352 1 Ar 12.3302 14.0725 1.33022 0.766954 -0.265359 -0.102786 1.95481 -0.205005 -0.161721
355 1 Ar 12.9884 13.3779 1.95552 -0.157758 0.393266 -0.0897674 12.5711 19.6086 -3.30435
356 1 Ar 13.2555 13.4942 0.841272 -0.204438 0.0770406 1.25891 -9.1059 4.49393 -1.5461
357 1 Ar 15.1429 13.1068 1.03802 1.29669 0.765766 -0.845122 13.3666 -5.88704 -0.66737
318 1 Ar 15.1702 12.2636 1.93825 0.0168306 0.64134 0.212346 -22.2108 12.9215 -3.43842
360 1 Ar 14.0313 12.8049 1.50605 0.750702 -0.5819 -0.484496 20.0286 -21.968 10.5081
322 1 Ar 16.734 12.7193 0.565832 0.206225 -2.52117 1.02819 -18.8282 -2.51188 -4.68866
3884 1 Ar 15.4141 12.0093 0.910115 0.691989 0.155055 0.782229 -6.89139 21.2846 -4.2933
328 1 Ar 0.250684 13.3916 1.33209 0.298098 -0.139746 -0.512048 40.9376 -11.4305 -8.72963
722 1 Ar 16.6694 14.6343 1.65056 -2.1003 0.523446 -0.525274 -2.34455 -1.94835 -0.652831
365 1 Ar 0.49992 13.6065 0.355261 -1.19583 0.0180849 0.550572 -6.60465 10.4637 6.58827
765 1 Ar 0.353159 14.8685 0.616704 -0.474736 -0.68223 0.13591 -1.32696 -3.97142 1.71083
726 1 Ar 2.37402 13.723 16.648 -0.755227 0.261395 0.375361 16.7725 -12.1319 -9.0119
367 1 Ar 2.27749 14.2514 0.724066 0.6281 -1.40023 -0.558866 -7.75259 -17.8904 47.1989
766 1 Ar 1.47906 13.2209 0.469285 0.150074 0.734405 0.00915289 6.89896 14.8961 -3.02059
371 1 Ar 3.34014 14.4646 0.62944 0.773612 0.18266 -0.820954 -13.8833 12.3342 -7.41426
336 1 Ar 3.91263 15.3619 0.675366 -0.4445 0.586641 0.131956 13.4262 2.68148 -1.2941
732 1 Ar 3.02991 13.4157 0.783913 -0.265073 0.985239 -0.516538 -17.6541 -11.8923 25.3807
769 1 Ar 2.96844 14.4547 1.7945 -0.512513 0.28356 1.02781 -18.292 -5.21043 -22.5658
729 1 Ar 4.62495 13.164 0.625537 -1.33782 0.67827 -1.84329 -20.5884 15.0063 11.0899
736 1 Ar 5.08791 15.044 1.00393 0.633805 0.416989 -1.41017 4.36482 -5.55057 -9.04623
334 1 Ar 6.48311 15.2738 0.173974 -0.157727 0.271262 -1.10019 -6.49947 2.64272 -5.50313
740 1 Ar 5.87269 14.4164 0.306755 0.154065 0.316144 -0.81379 2.64318 -13.6204 17.9229
338 1 Ar 7.192 15.4184 0.944445 1.80235 -0.347282 0.988981 4.19431 0.0341987 -9.59725
379 1 Ar 7.83195 16.82 0.19839 0.986292 1.21014 -0.132973 1.99548 -0.0585741 -2.41643
337 1 Ar 7.06063 14.3324 0.0264578 -0.86826 0.911898 -1.7019 -3.84486 19.7357 -4.00455
3944 1 Ar 8.14731 14.6706 0.207445 -1.64516 1.03088 0.575459 -16.2966 -4.28111 18.8482
779 1 Ar 8.25787 15.5153 0.930643 -0.667916 1.00741 0.771415 9.47371 3.12382 -0.663783
345 1 Ar 10.0018 14.4266 1.00392 -0.302243 -0.862368 -0.321925 2.09239 21.7008 20.8194
385 1 Ar 11.0868 14.8262 0.461303 -1.23714 0.250439 -2.01113 5.12824 9.21455 -5.2154
3943 1 Ar 9.08521 15.0998 0.263947 -0.97915 -0.357427 -1.22485 13.328 -15.8569 -0.22541
347 1 Ar 12.1714 15.0545 0.535493 0.875318 0.407021 -0.478219 -8.21063 -6.34836 -2.09608
346 1 Ar 11.3331 15.8083 1.05094 -0.570654 -2.09826 -0.496362 3.31935 -19.9517 0.691001
389 1 Ar 11.5121 15.3559 16.4308 -0.0444408 0.615423 -0.697268 -11.101 6.41233 10.8058
391 1 Ar 14.0876 13.7738 1.41846 -1.05516 0.114906 0.407115 7.63875 39.5692 2.03751
393 1 Ar 14.0622 14.5843 0.526103 -1.12411 1.09211 1.39181 -3.72972 -6.74654 2.39912
350 1 Ar 13.1521 14.7422 0.937632 0.376995 1.0463 -0.775077 -19.195 -2.82984 0.414337
3993 1 Ar 12.8883 14.502 16.557 -0.720042 0.62433 0.118258 -0.675955 -3.84175 5.99979
793 1 Ar 14.3318 14.7937 1.6743 0.831752 0.399426 0.326612 8.88998 12.4068 -2.32968
4000 1 Ar 15.0276 14.2369 0.575133 1.29164 -0.543682 -0.79521 8.68403 6.28697 37.9122
37 1 Ar 15.4674 15.1044 16.6255 -0.262804 0.433768 -0.396922 -7.22264 0.292014 -6.29632
758 1 Ar 16.0544 13.6656 0.579847 -0.721195 0.167987 0.556959 3.33433 9.97641 -19.3183
400 1 Ar 15.8867 15.0661 0.796634 -1.18002 1.00882 -0.126006 31.2862 -31.0554 8.91709
363 1 Ar 0.752504 15.353 1.53006 -0.0635535 0.0596055 -0.219452 -7.3283 -0.24418 1.39626
399 1 Ar 16.4824 15.7892 1.70218 0.792769 -0.494044 -0.893242 -7.57282 -9.69681 -13.5881
368 1 Ar 1.51743 14.2645 16.5315 -0.3903 0.235319 -2.05834 -22.4713 -19.1031 17.6253
372 1 Ar 2.79892 16.3063 16.4615 -0.0748237 0.587843 0.412785 -13.1178 24.4342 -24.7086
762 1 Ar 1.57548 15.0915 0.861821 1.52179 0.0693973 -0.165518 -2.75753 -0.523514 -8.07128
409 1 Ar 1.99824 16.1217 0.394489 1.66724 -0.42191 -0.462634 23.6427 -15.267 -4.83878
370 1 Ar 2.92338 15.5948 0.325384 2.66743 -0.389434 0.378598 14.3348 -28.9472 -9.16124
373 1 Ar 5.25468 15.149 16.7477 0.734883 -1.01639 -0.674964 -15.2136 -10.2905 -21.4684
374 1 Ar 4.92767 0.176987 1.67811 0.475362 2.09138 1.42367 11.0586 -3.38057 0.448172
376 1 Ar 3.77488 16.4362 0.0212852 -0.205005 -1.28711 -1.8548 -7.23785 -19.2778 11.3659
375 1 Ar 6.74754 16.4645 0.706107 -1.04616 0.735226 0.467462 -1.4537 -0.602633 0.576945