ITEM: TIMESTEP
3000
ITEM: NUMBER OF ATOMS
4000
ITEM: BOX BOUNDS pp pp pp
0.0000000000000000e+00 1.6795961913825074e+01
0.0000000000000000e+00 1.6795961913825074e+01
0.0000000000000000e+00 1.6795961913825074e+01
ITEM: ATOMS id type element x y z vx vy vz fx fy fz
4 1 Ar 16.4789 16.7474 0.303594 -0.922381 -1.81718 -0.136198 0.926924 2.32026 4.03157
8 1 Ar 1.1792 0.692868 1.86028 0.120442 0.62122 -0.701149 -13.6979 8.8808 -7.6213
7 1 Ar 1.19679 16.6365 0.485241 0.184195 -0.649812 0.644484 -4.47086 -8.97361 5.75097
412 1 Ar 1.94653 0.291224 1.23176 0.430507 0.16454 -0.572175 4.25596 -0.411501 -3.22538
445 1 Ar 2.17874 0.721391 2.17633 -0.969953 0.793262 0.990574 3.12699 -4.56329 5.63833
49 1 Ar 1.95522 0.533502 0.228911 1.81482 0.646045 -0.175444 10.1421 4.18837 -25.5401
6 1 Ar 3.08969 0.85567 1.64053 0.306519 1.51826 0.607859 -16.7919 12.902 -1.76809
410 1 Ar 4.03915 0.890253 2.02507 -1.21106 -1.25216 0.576295 13.4678 -0.932251 20.78
12 1 Ar 3.40119 1.82045 0.947199 -1.35793 0.150277 1.0568 -19.2352 -22.8524 -6.83609
11 1 Ar 3.54519 16.3518 1.06314 -0.752992 -0.653733 1.14491 -11.4702 14.6825 -1.61769
15 1 Ar 4.66116 1.46861 1.36043 0.204396 0.656798 -0.62403 -19.4911 -14.5137 -24.8645
53 1 Ar 5.14146 2.31878 1.05714 -0.29359 -0.728792 0.324315 9.78133 13.0457 1.3978
414 1 Ar 5.53597 0.87195 16.522 0.926672 -0.75359 0.63913 11.9602 -10.1518 0.122526
457 1 Ar 5.96499 1.26281 1.24893 0.318552 0.98822 0.392428 -10.8301 21.2421 7.15483
55 1 Ar 7.35184 3.63418 15.8718 -0.159427 -1.05924 -0.0349809 -3.84214 -5.63668 -3.50703
417 1 Ar 7.51375 0.918376 0.665774 -0.289962 0.686587 -0.353935 -1.1886 -2.17156 15.5004
459 1 Ar 6.62732 1.2781 0.248469 0.579196 -0.796922 -0.0109743 -8.42806 7.31527 -8.28804
18 1 Ar 8.59149 0.388952 1.01577 0.0444785 -1.76737 -0.145245 2.46166 -10.7165 -5.40903
24 1 Ar 9.30977 1.16409 1.21009 0.746177 0.502615 -0.256134 5.79658 -0.524428 -1.38874
461 1 Ar 9.86527 2.02281 1.47319 2.40967 0.297003 -0.735844 -10.8493 0.130222 -10.7948
28 1 Ar 11.0039 0.349495 1.69773 0.155406 -1.05946 1.21311 -6.73787 1.5883 -6.63602
68 1 Ar 9.46715 1.91887 0.405287 -0.305982 -0.361515 0.118256 -0.870328 -6.40738 5.01874
27 1 Ar 11.7077 1.23083 1.30173 -1.50604 0.118023 -1.23078 -3.5351 7.70342 2.31215
26 1 Ar 10.111 1.25847 16.5839 0.0233949 -0.0744151 1.29461 -7.39943 3.60404 4.70974
69 1 Ar 11.5667 1.76057 0.362556 -0.0517201 0.46947 -0.406236 -6.37956 2.02822 10.3169
32 1 Ar 12.6101 1.74536 0.116876 -0.245828 0.616358 0.311283 -41.0617 -11.3224 27.6314
33 1 Ar 13.11 0.455253 0.442913 0.620052 0.441914 -0.955169 20.872 28.6093 20.4344
30 1 Ar 13.7635 16.4129 0.470863 0.132507 -0.0303513 0.496129 0.60228 -3.17809 4.57465
34 1 Ar 14.4818 0.392852 0.328348 0.0807691 0.868333 1.26874 -33.1013 12.6911 21.7596
40 1 Ar 14.7865 16.632 16.3327 0.926242 -0.119847 1.05087 -4.54739 -11.9608 -15.1455
438 1 Ar 15.3828 16.4979 1.98897 -0.672868 -0.611412 0.613234 13.8417 14.9861 -28.2931
434 1 Ar 14.9701 0.711081 1.65369 1.31267 0.629347 0.308784 29.57 -9.46425 -0.422017
79 1 Ar 15.4413 0.325171 0.508438 -1.50074 0.0352133 1.43371 35.032 -3.81576 7.51115
477 1 Ar 14.9247 1.32246 0.637319 -0.62807 -0.15627 -0.217956 -1.04444 -2.19587 -12.1169
41 1 Ar 15.0384 0.962071 16.4006 -0.856176 0.356054 0.82582 4.42797 -0.110448 -4.70138
43 1 Ar 16.1032 1.22706 0.203154 0.210048 -1.04419 0.138552 -5.72526 -0.239637 -1.37713
47 1 Ar 1.20723 1.07299 0.722959 -0.572303 1.46908 0.169605 25.8927 16.462 13.3846
83 1 Ar 0.329866 1.61062 0.34501 0.531275 0.537053 -0.782921 -5.98595 -22.9284 -2.24068
402 1 Ar 0.66292 1.70298 1.50779 -0.349286 0.870599 -0.834956 -3.72463 -11.5921 2.67629
442 1 Ar 1.48044 2.17797 1.07513 1.27607 0.973066 -0.0466425 11.6846 12.1068 -29.5149
449 1 Ar 2.3238 1.42112 0.980564 1.07132 0.279266 0.421029 3.42908 -6.04295 16.8833
48 1 Ar 1.79616 3.0989 0.179982 1.62457 0.866929 1.26766 -4.28965 -3.31138 1.90165
485 1 Ar 2.38713 3.19294 1.3446 -0.757341 -0.140553 0.284151 -7.17905 6.08416 6.24795
446 1 Ar 2.72536 2.62257 0.533938 -0.437938 -0.529197 0.363306 0.384071 -1.82013 4.18676
50 1 Ar 3.01447 3.8476 0.6683 -1.0114 0.629809 0.588347 1.59343 -15.2783 -24.3088
529 1 Ar 4.67922 3.34822 0.827191 0.833102 0.478007 -0.0297021 14.1745 31.8368 8.7676
490 1 Ar 5.60441 3.04015 0.389261 1.50469 0.460312 -0.0169793 7.20143 -7.53071 -9.05277
493 1 Ar 6.60149 3.03677 16.4692 0.489036 1.65538 1.02657 -2.42587 0.0883477 -4.69387
494 1 Ar 7.59488 3.90009 0.121428 0.0529195 0.503842 0.466975 -10.161 9.75233 -3.18826
456 1 Ar 5.47957 1.83473 16.7971 -1.02348 -0.740962 0.465812 -0.0317138 22.1913 10.9561
60 1 Ar 7.53956 1.97163 1.03023 -0.849423 -0.879197 -0.740957 22.5512 18.5866 -25.039
95 1 Ar 6.45018 2.31114 0.80996 0.123242 1.00277 0.535224 0.756751 -13.1143 -2.58582
454 1 Ar 7.00964 1.46975 1.67642 0.226844 -0.0681279 -0.0811565 -17.4524 -15.1461 7.25844
462 1 Ar 8.94503 2.3786 1.86089 1.05865 -0.182601 1.46735 -0.137256 -21.7872 7.23098
99 1 Ar 7.9337 2.17373 2.26787 -0.622246 0.550819 -0.774259 3.71269 0.154596 -13.5647
458 1 Ar 8.53059 1.3602 0.530427 -0.436643 1.01173 -0.21965 -6.9104 4.5582 -4.18758
101 1 Ar 9.35588 3.14708 1.22803 -1.03205 -0.10102 -0.462975 -3.21689 -2.85091 2.34482
103 1 Ar 10.3937 3.14191 0.90912 -0.445714 -1.08738 0.722872 -14.0413 -22.6319 12.7441
464 1 Ar 9.85636 2.35859 2.47837 -0.263783 0.227777 -0.40052 -0.563418 3.43902 6.97081
107 1 Ar 10.5333 2.10141 0.503805 -0.189844 0.50133 -2.17354 1.5182 5.07858 -6.47814
72 1 Ar 11.0712 3.76946 0.558246 0.479172 0.302145 -0.920846 21.8939 17.6982 -9.07142
109 1 Ar 12.4568 2.25241 15.9315 0.363595 0.35396 0.391373 -19.8303 1.71737 14.8696
73 1 Ar 12.9691 2.3082 0.940513 0.6221 -0.969916 0.811335 8.11915 -5.74412 5.78974
36 1 Ar 13.9908 2.11324 0.929912 0.289395 0.431695 -0.728711 13.2976 8.42702 21.1128
3715 1 Ar 14.2405 2.50737 2.13867 -0.493088 0.677388 0.950835 5.01676 -2.3463 -10.6975
3714 1 Ar 14.1997 2.79568 0.137227 -1.55053 0.257229 -1.29331 14.383 8.17024 -5.57803
44 1 Ar 15.804 1.96112 1.00827 -0.264275 -0.0635172 -1.34697 2.04291 12.2517 -18.0013
117 1 Ar 16.369 2.92315 1.04594 -0.165473 -0.58557 1.15858 -3.48797 10.792 12.9871
441 1 Ar 16.4449 1.26167 1.28722 1.35181 0.0517248 -1.24046 15.4871 27.5297 0.740477
78 1 Ar 15.3255 2.06625 16.6818 -1.29668 -0.981482 -0.831497 -11.2548 -19.47 12.7043
525 1 Ar 1.22928 3.40065 1.15057 0.0491859 -0.00356878 -0.739079 3.99983 -13.6296 3.95359
88 1 Ar 1.91475 4.45585 16.2245 -0.750779 -0.55848 -0.283427 23.1091 -4.93593 -22.2087
486 1 Ar 2.65694 3.57408 16.4577 -0.588366 -1.12697 -0.678491 -20.7538 -11.7784 3.90719
524 1 Ar 2.84095 4.28683 1.53522 -1.12717 0.229215 -0.237892 -7.91476 4.51219 26.4378
489 1 Ar 3.67861 3.60754 16.5968 -0.411674 0.811993 -1.12893 8.5788 -3.03213 -0.0451159
131 1 Ar 4.74435 4.40679 1.34755 0.886061 0.498854 1.9699 13.7561 -24.1796 -3.69346
500 1 Ar 6.644 3.34764 0.689781 1.58459 -0.801378 0.233538 13.4606 13.063 -2.29465
136 1 Ar 5.7416 3.94129 0.914995 1.69974 0.685705 0.00760854 -12.8774 3.17151 -6.0192
533 1 Ar 6.61953 4.41549 0.341086 -1.79552 -0.12807 0.924473 -6.90032 -13.1422 -8.15204
536 1 Ar 5.18359 3.47547 1.77908 -1.55604 1.34702 0.979799 -18.2886 16.5023 -8.75037
537 1 Ar 7.39138 3.97473 1.31165 0.374755 0.98732 -0.329457 -6.14534 2.12917 -5.53012
898 1 Ar 8.01799 3.18543 1.49908 -0.917519 -0.814 -0.69794 11.9718 -12.842 5.38412
94 1 Ar 7.66849 2.90678 0.488298 -0.0452917 -0.827984 -1.28757 1.49257 -2.7699 -1.9738
108 1 Ar 9.86974 3.61725 2.13131 0.301005 -0.280272 0.695974 -3.55804 -2.93541 -3.14707
147 1 Ar 10.9792 4.86235 0.843023 0.59029 -0.490355 1.0419 6.51253 7.39165 -9.20067
501 1 Ar 8.95505 4.07466 1.67184 0.285874 -1.15858 -0.395931 -1.03655 2.18221 -0.561394
3747 1 Ar 10.743 4.21963 1.61745 0.219508 0.821618 -1.2753 11.6836 -14.774 -12.4691
112 1 Ar 11.8709 4.23753 1.18779 0.142456 -0.281909 0.966913 -3.00186 11.0302 3.14103
106 1 Ar 11.4088 2.80729 0.053272 0.472221 0.281455 0.804874 0.271216 -2.55085 -0.62172
110 1 Ar 12.4789 2.82566 0.200265 0.704306 -0.51734 -0.0590695 3.08202 12.3457 -18.4713
113 1 Ar 12.5497 3.90546 0.405257 0.0529381 -0.0244663 0.607401 4.08408 4.90987 5.65979
513 1 Ar 13.0731 3.28949 1.1336 -0.233073 0.280335 -1.41234 20.925 18.2138 -1.79906
115 1 Ar 14.4166 3.51359 0.954103 0.0676373 0.672423 0.342005 -11.5453 7.61403 -4.20049
514 1 Ar 14.7214 4.61331 1.71399 -0.841151 1.54951 0.721162 5.46061 -9.30469 1.41968
114 1 Ar 15.2557 3.32938 0.236145 0.355671 1.67898 -0.656071 -1.74145 4.86073 -3.09272
120 1 Ar 0.204006 3.85816 1.17418 1.02045 0.457546 -0.0409948 -11.8372 -3.90477 1.46716
118 1 Ar 15.4591 4.21756 16.4276 0.242778 -1.14135 -0.0629197 1.39868 -10.7251 -7.72646
119 1 Ar 15.6153 2.87489 16.1601 0.875134 -1.45995 -0.23909 4.61959 17.641 -18.0634
123 1 Ar 1.95456 4.17529 0.433623 -0.627716 -0.584194 0.122632 7.60831 -8.12892 -0.816904
163 1 Ar 1.10219 5.53871 0.928303 0.770656 -1.14667 0.410906 -0.0176687 -10.5146 5.57693
565 1 Ar 1.96397 4.85427 1.23516 0.715034 -0.44308 -0.959041 -4.07504 3.84826 4.26146
3724 1 Ar 0.363556 4.53759 0.0677327 -1.30446 -0.488847 -0.499837 -5.23296 3.2731 26.3602
92 1 Ar 2.94247 4.5846 16.5392 0.465135 -0.447881 2.17416 14.717 -22.8462 -43.2786
128 1 Ar 2.21372 5.92946 0.744935 -0.488197 0.611478 0.408654 0.103892 1.32455 13.2413
133 1 Ar 4.70793 5.23551 0.756314 1.04193 -0.598624 0.479715 9.42935 6.45628 -22.7868
526 1 Ar 2.31069 5.45168 16.6388 -1.29894 -0.973754 -1.13801 -1.31403 0.918183 -9.63578
173 1 Ar 4.16733 6.90736 1.31619 -0.203198 0.66802 0.701188 -1.20425 22.8362 23.4101
575 1 Ar 4.69719 5.33421 1.76103 0.45432 0.691568 0.213284 21.5378 8.7268 34.4166
3736 1 Ar 5.09197 6.28796 1.33322 -1.04626 0.648448 0.16021 -0.569544 -5.37441 -18.6177
573 1 Ar 6.00505 4.94767 1.07506 1.49308 0.939227 1.11074 3.59448 3.71393 6.05798
134 1 Ar 6.83562 4.88663 1.9833 0.084013 -0.722112 0.148588 -8.12697 14.6878 17.6678
534 1 Ar 7.13238 4.96734 1.03409 0.361178 -0.0370733 0.0813176 17.0811 2.75682 0.802554
535 1 Ar 5.71849 4.52765 2.26177 -0.218694 -0.574211 0.806834 -4.84832 -0.191242 -0.874634
539 1 Ar 7.92924 5.63381 0.844792 1.23017 0.281818 0.163298 4.60414 7.46825 -1.10487
540 1 Ar 8.0759 4.71293 1.70734 1.83704 0.259882 0.420056 -5.74743 12.2984 -16.5631
139 1 Ar 6.57659 5.96245 1.35522 0.246211 -0.329002 0.291804 16.4228 -4.40275 -1.61841
144 1 Ar 8.55135 3.68783 0.490514 -0.295527 0.325118 -1.52989 11.2134 -1.97602 21.3416
541 1 Ar 8.8115 4.88535 0.861518 -0.0378177 0.154685 -0.283937 8.0873 -0.685115 10.2447
145 1 Ar 9.93366 5.12315 0.654206 -0.0719305 1.19769 1.07005 -29.8714 -19.8222 25.0217
151 1 Ar 11.7708 5.54905 1.20057 -0.159055 1.14323 0.555715 -10.6632 4.98283 12.3568
544 1 Ar 9.33599 5.61796 1.5632 -1.06667 -0.664741 0.423911 4.96958 1.89812 -10.3827
510 1 Ar 10.7572 5.393 1.75736 -0.46169 -0.0952264 -0.266375 -4.16413 -1.65734 -15.1417
153 1 Ar 12.2887 5.04531 0.466435 -1.66356 0.640918 -1.63904 1.54058 -5.63579 -13.9522
591 1 Ar 12.6913 5.07645 1.45474 -0.493022 -0.182973 -1.59088 -9.20561 9.90766 4.41122
155 1 Ar 13.4556 4.56463 0.946858 -1.78793 -0.214306 -0.893482 -7.50051 -13.5152 4.55401
550 1 Ar 13.4374 5.57078 0.431565 1.37287 0.16377 -0.199832 -7.10457 -14.4231 22.5524
553 1 Ar 12.8149 4.08561 1.85469 0.042772 0.685166 -0.389381 -20.953 -3.36621 -18.6447
159 1 Ar 14.1536 4.71427 0.206029 1.14816 -0.40168 0.376907 8.77948 2.43621 -10.4021
160 1 Ar 16.0163 5.67798 0.625928 -0.147051 0.338639 -0.220441 18.0012 -1.03196 -14.3639
593 1 Ar 15.0874 4.34724 0.652181 -0.196943 -0.0379873 -0.409484 -16.3195 -1.13953 -6.34925
200 1 Ar 15.4612 3.61051 1.26549 -0.956721 0.81994 -1.19516 19.0557 -22.2292 -4.86196
84 1 Ar 0.242066 3.33483 0.11856 -0.696245 0.276485 -0.778679 -4.1847 12.3603 5.20108
157 1 Ar 0.0432165 5.02968 1.08996 0.618607 0.944311 -0.55389 2.85203 5.66813 -23.391
522 1 Ar 2.29946 6.99932 0.505005 0.00103451 -0.461197 -0.722807 13.7163 -16.9694 -12.4678
162 1 Ar 1.5199 6.48006 15.4716 -1.21926 0.203976 0.388367 1.96595 1.86848 -4.66647
561 1 Ar 0.298916 5.68495 0.232476 0.193664 0.235973 -0.055813 -2.63955 -0.457749 -11.8111
605 1 Ar 1.37854 6.5322 1.04545 0.260374 -0.280481 -0.507261 -0.736417 -0.139109 3.78009
167 1 Ar 3.25004 7.41652 0.706706 0.160774 -0.322776 -0.282589 9.22293 -6.81781 -1.43799
566 1 Ar 3.3257 6.37918 1.67483 1.49761 1.0788 -1.01114 -23.6678 11.6407 -4.20085
172 1 Ar 1.82713 5.56875 2.03384 2.81674 0.911438 0.0370206 5.57612 11.1891 -4.72829
570 1 Ar 3.29751 8.60965 1.78089 -0.973434 -0.405217 -1.76662 -0.84391 -27.6058 22.0562
569 1 Ar 2.95847 7.33508 1.80827 -0.151558 0.33685 0.00800164 -3.76564 19.9085 -1.69179
171 1 Ar 3.50575 8.22484 16.5819 0.0491301 -0.461321 -0.809928 -14.268 -9.57819 -2.14379
170 1 Ar 4.4012 7.78392 0.586806 0.91495 -1.01505 0.916223 -9.91965 -10.1138 0.68699
175 1 Ar 5.2737 8.69195 1.31727 -0.684369 1.17079 -0.23072 -15.282 2.88447 0.48936
577 1 Ar 5.7723 5.59182 1.88186 -0.0912622 -1.0779 1.2651 4.00638 -13.3496 7.36706
177 1 Ar 6.2825 6.90166 0.981006 -0.780825 0.351083 0.135811 -5.49228 5.31694 -2.09089
538 1 Ar 7.02683 6.36833 16.7177 0.88724 0.413768 -1.33699 -33.6587 20.7244 -38.89
574 1 Ar 6.83512 5.99761 2.53196 -2.20534 -0.146176 0.222528 -10.8504 0.0531707 5.41438
179 1 Ar 7.1392 7.37586 16.7926 0.594929 1.60132 1.30204 2.77162 15.5092 19.9339
183 1 Ar 8.85131 6.42811 1.01917 -0.554916 -0.0950892 0.546262 -12.0696 8.64904 4.53977
148 1 Ar 9.57203 6.1507 0.34025 -0.905561 -1.68544 0.713364 4.08522 -2.63217 -16.2581
185 1 Ar 10.3602 5.42212 16.6107 0.245168 -0.936132 0.318164 27.2041 46.9159 -24.9108
582 1 Ar 10.6354 8.55118 1.25806 -1.26305 1.00685 0.12239 -30.2825 -58.3182 -18.4451
585 1 Ar 9.92997 6.91792 1.17718 -1.02299 0.416103 -0.214256 -0.529974 -9.13523 5.12669
142 1 Ar 8.61672 7.45881 1.74104 0.440224 -0.760767 1.20952 9.00306 10.0161 -0.556658
546 1 Ar 10.4435 5.96238 0.89318 0.5264 -1.35036 -1.61006 19.8982 16.3476 5.55203
187 1 Ar 11.3889 6.89514 0.470899 -2.05486 -0.244067 -1.48903 7.65839 -8.41065 -1.49322
586 1 Ar 10.8138 7.53429 1.21119 -0.555243 -1.35186 0.140345 6.05534 -5.98652 0.0439583
191 1 Ar 12.3551 6.17629 0.173914 -0.995481 -0.224821 -1.24991 5.68696 -0.107667 5.0203
590 1 Ar 13.4247 6.61655 0.932497 0.0434124 0.245504 -0.75757 17.6329 1.25739 0.725235
193 1 Ar 13.44 6.41692 16.695 0.572681 -0.693961 -0.369113 11.1461 36.5353 -1.78527
3760 1 Ar 14.3158 7.21327 1.08121 1.36079 -1.14292 -1.3784 -18.4903 31.7239 -37.8615
158 1 Ar 0.0801155 6.23188 1.14208 -0.665891 -1.51523 0.666738 5.07679 16.8083 -16.6573
164 1 Ar 15.4804 7.51954 0.931922 -2.22413 0.0957353 0.889876 -21.6397 72.8078 2.61235
199 1 Ar 15.4721 6.59349 0.791321 0.425846 -1.84498 -1.11516 -4.26515 -65.8036 7.80753
3799 1 Ar 16.39 7.18198 0.669142 -0.969313 0.47486 -0.0581124 15.3313 -5.49265 -5.62706
208 1 Ar 1.68658 9.29705 0.355951 0.511961 0.401922 -1.65682 -6.30244 7.11819 7.94028
608 1 Ar 1.58286 7.55152 0.908473 -0.575483 1.1313 0.95944 -13.3089 4.73579 19.8307
609 1 Ar 2.48464 8.15038 1.06647 0.340504 0.436961 -0.0875239 -6.27233 -7.02641 15.6545
211 1 Ar 4.23193 9.40526 1.45514 1.05416 -1.22177 0.00830833 7.66999 -6.70701 -0.573911
210 1 Ar 3.48139 8.43761 0.828244 -0.479891 -0.316726 -0.523038 18.3931 4.28684 -25.1393
176 1 Ar 3.52047 8.06226 15.2848 -0.666646 -0.342226 -0.834113 7.28108 -12.1369 -3.56458
610 1 Ar 4.26919 8.02667 1.73048 0.402838 -0.257028 -1.99435 -4.71648 3.76741 -25.9044
214 1 Ar 6.05797 7.75852 1.84445 0.748044 0.305246 -0.381169 -5.6479 5.90057 -4.71897
613 1 Ar 5.10194 7.22422 1.83583 0.0906163 -0.370424 -0.844688 -2.59685 8.97829 2.60656
253 1 Ar 5.92327 8.85744 2.16059 1.01321 0.113632 -0.411866 2.23965 -2.8399 6.04973
651 1 Ar 6.20173 9.53472 1.43191 0.726865 -0.832911 -1.08239 -61.2905 54.4665 -5.86273
180 1 Ar 7.32279 6.6598 0.797478 -0.627801 0.755648 -1.45546 16.7825 9.39089 38.3825
174 1 Ar 5.38426 7.38334 0.602619 -0.216246 -1.47463 -1.31381 -11.5046 4.01995 19.9388
215 1 Ar 6.93463 8.96449 1.32922 -0.751405 -1.69406 -0.469048 51.0241 -62.8373 -15.6297
219 1 Ar 8.12495 7.50727 0.517429 -1.34212 -0.609164 -0.070445 1.38892 0.505409 -0.328631
223 1 Ar 8.80032 10.0837 0.651977 -0.870958 1.10559 -0.0257289 -5.41784 -0.232076 1.67654
618 1 Ar 7.7215 8.63293 0.310014 -0.339532 0.870608 -0.139889 1.1597 -14.822 21.9539
3828 1 Ar 9.0692 8.19257 16.7356 1.90574 -0.348519 0.879228 -22.4959 -22.058 -20.2024
225 1 Ar 9.27882 7.66211 0.804349 -1.69909 -1.97984 0.333584 -3.29711 0.242371 5.58905
625 1 Ar 9.58426 8.83806 0.472548 -0.447117 -0.0536965 0.677755 -6.7391 27.107 28.4185
3827 1 Ar 9.60605 8.67283 15.9465 -1.37498 -0.228963 -0.720206 -0.478035 -10.5793 11.5125
188 1 Ar 10.2856 8.15279 0.310421 -0.709811 -0.271958 0.84879 17.9852 -20.8404 -8.42346
227 1 Ar 11.3376 9.71311 16.6687 2.11092 -0.468582 1.1251 -53.1758 6.96624 30.8812
192 1 Ar 11.881 7.78537 0.805146 -0.213683 -1.04716 1.02854 6.53366 -3.09256 -4.92737
669 1 Ar 10.4678 9.40027 0.416873 0.0534351 0.175133 -0.754071 8.97932 1.12347 6.74723
190 1 Ar 12.4929 6.65381 1.24428 -0.675982 1.30767 1.48724 -24.4731 21.1607 -13.3863
231 1 Ar 12.7088 8.2608 1.69666 0.575036 -0.52035 -1.01161 10.0643 0.33098 9.25699
3796 1 Ar 12.5362 8.34399 0.129621 0.691795 2.50237 0.0764482 5.60909 -48.7516 8.31125
195 1 Ar 13.3735 8.67865 0.530813 -0.525591 -0.340832 0.505673 31.833 8.67266 16.3316
194 1 Ar 13.3417 9.98043 0.931395 0.736384 -0.600338 -0.0357081 5.54609 -3.9794 -1.03817
636 1 Ar 13.3627 9.11233 1.67305 0.860701 0.0678729 0.38264 -9.63857 5.75763 -10.6503
3795 1 Ar 14.3025 9.09788 1.22213 0.0313407 1.92133 -0.913212 -31.102 4.6339 -10.1381
201 1 Ar 16.732 8.50705 0.441127 -0.400173 0.693297 -1.23243 10.2 -4.38711 -25.0596
197 1 Ar 14.7114 8.19583 1.11342 0.062703 1.2183 0.306228 9.34159 -9.99251 -1.49993
204 1 Ar 0.288496 9.48419 0.625793 0.51041 1.31117 -0.739028 6.53269 6.07901 1.76126
243 1 Ar 1.10717 9.75403 1.28023 0.349992 0.453856 -0.283239 5.25361 4.38112 -7.3511
241 1 Ar 0.306863 10.0604 16.5407 0.44465 -1.38387 0.701034 0.940704 2.02236 -1.17781
212 1 Ar 2.95887 10.9358 1.47239 0.669175 0.675783 -0.340126 6.04031 -2.69949 -2.45224
245 1 Ar 2.48189 10.2508 0.551379 -0.00640246 -0.337522 -2.06851 3.26711 -3.30431 4.47103
247 1 Ar 2.02782 10.493 1.47384 0.011839 -1.62731 -0.578234 -20.5047 -4.79656 -4.97918
249 1 Ar 2.62971 11.4351 16.7569 0.255446 -0.405207 -0.988085 1.73575 -24.4038 -5.79018
606 1 Ar 2.28873 9.36715 1.32921 -0.427546 -0.202789 1.01833 -4.46786 -2.11449 2.01736
612 1 Ar 3.27816 9.50663 0.932024 -0.230131 -0.734664 -2.09207 -4.5442 -2.3715 -20.7837
649 1 Ar 4.19823 10.9797 0.278403 0.41892 0.96042 -0.0262281 -31.3867 -9.33611 11.5639
653 1 Ar 4.992 10.3414 1.15033 0.944819 0.496043 -1.16598 -7.23799 -8.84258 7.56679
689 1 Ar 3.82626 10.4082 1.46052 -0.0894194 -0.000594029 0.624514 15.6961 -9.37282 -6.65586
3856 1 Ar 5.09366 10.5379 0.176458 -0.335749 -0.222169 -0.215417 16.2665 -0.857868 -12.9272
255 1 Ar 7.11107 9.68681 2.0199 2.23515 0.258142 0.12498 -4.73142 11.8085 27.8369
218 1 Ar 7.68561 9.65986 0.268078 0.717122 -0.549704 1.00814 17.1407 13.6517 -3.38066
222 1 Ar 8.6608 9.16797 16.5277 -0.250456 0.0231753 0.0112975 -6.07924 3.27547 -1.28764
263 1 Ar 9.31551 10.7323 1.61941 -0.518467 0.138776 -1.51862 7.19311 -3.66874 -1.58139
3859 1 Ar 8.89403 10.1967 15.8963 -1.40317 -0.280132 0.00710925 0.812512 -3.67178 2.48399
265 1 Ar 8.50365 10.3998 14.89 -1.59434 1.22107 0.676057 19.627 18.4883 12.4546
267 1 Ar 11.1651 10.3869 0.926248 -0.869838 -1.04846 1.10012 -8.0789 -22.0922 -15.7091
665 1 Ar 9.76823 10.5688 0.44359 0.736677 1.12846 0.823397 -2.06731 -11.3533 16.1888
232 1 Ar 11.0739 10.193 1.9136 0.877213 -0.483592 1.03153 13.0071 5.888 13.3212
269 1 Ar 11.2397 12.1139 1.07308 0.460852 1.2549 -0.0123722 -2.69575 3.11632 23.9606
272 1 Ar 11.651 11.1913 0.638788 1.96306 0.974284 0.977517 23.348 24.0409 -10.5547
3836 1 Ar 11.5323 8.75701 0.476709 0.0195941 -1.07036 0.041031 -36.9486 -16.5843 26.6194
311 1 Ar 13.0342 10.5088 1.80778 1.9408 0.593074 0.327691 9.01947 -3.44789 -9.27014
230 1 Ar 12.4137 9.03449 0.955287 -1.47134 0.225842 0.538493 9.4305 5.94829 -2.04688
234 1 Ar 15.3099 10.0567 0.56665 -0.181812 -0.253268 0.229419 -2.51626 -0.0464457 6.33874
237 1 Ar 14.4247 8.73992 0.125878 0.474087 -1.52993 0.764383 -0.123005 -3.0754 -2.79762
233 1 Ar 14.3223 9.74977 0.386442 0.476501 1.35585 -1.48142 -12.7427 16.6163 31.2174
279 1 Ar 0.393967 10.6602 0.596423 -0.329656 -1.03303 -0.326057 2.25216 -26.7855 10.5948
238 1 Ar 16.1963 9.43528 16.7275 -1.60777 -0.545214 0.461922 -2.20566 -17.0714 -8.76073
244 1 Ar 0.171085 10.9555 1.71571 -1.17405 0.608588 0.862213 32.852 -20.6134 -0.539324
282 1 Ar 0.756829 11.5983 0.464886 -0.344557 0.953888 -1.11908 12.7668 13.8031 -6.43077
248 1 Ar 1.76486 11.0721 0.456584 -0.0461694 -0.300795 -0.129843 -2.10906 15.6121 12.0524
285 1 Ar 2.58118 12.4179 0.200125 0.842846 -0.171178 0.245867 -44.4507 -3.55355 27.5544
287 1 Ar 2.41009 11.6369 1.03383 0.393404 1.26867 -0.9625 2.13499 18.492 1.03767
331 1 Ar 3.5071 11.7385 0.65817 0.00754359 -0.343954 -0.773368 -4.31057 0.650073 0.457897
250 1 Ar 5.68347 11.3205 0.829063 0.784155 -0.858612 -0.844362 -0.619921 -1.58809 2.01805
291 1 Ar 4.66077 11.0602 16.1324 -0.68941 0.316607 0.456157 7.94399 -3.18223 16.5689
693 1 Ar 5.49978 12.4061 0.580627 -0.0344538 -1.59908 1.0332 16.3937 -1.24565 -13.144
256 1 Ar 6.96443 12.7413 16.2105 -0.825482 1.25489 -0.399716 -13.5723 -18.197 8.85179
297 1 Ar 7.14749 10.1445 1.05507 1.22709 0.259736 -0.422826 -12.2333 11.7122 -3.13405
654 1 Ar 6.00879 12.2662 1.58226 -1.17389 0.363206 0.633781 2.43274 -16.8806 -8.60046
301 1 Ar 7.82731 12.008 0.3503 -0.77855 0.340298 0.00678313 10.4895 11.5974 -15.0521
662 1 Ar 8.79978 11.4533 1.00719 -0.518733 0.575841 -0.47456 -2.67303 -0.123912 -4.27048
3864 1 Ar 8.82046 12.5063 0.028801 1.22166 0.210884 -0.0443234 -2.32863 -13.173 5.72155
266 1 Ar 8.58646 13.4132 0.567594 -1.02241 0.2449 -1.60386 -2.33034 2.67962 -1.83706
666 1 Ar 10.2261 12.2356 0.439898 -0.301135 -0.143932 -0.0296827 11.3331 5.60734 24.804
306 1 Ar 10.3649 12.6519 16.3221 0.383732 -0.889279 -0.341996 5.39941 20.2977 6.18541
707 1 Ar 9.31689 12.3929 1.04854 0.496037 -0.273845 0.0933851 6.57016 3.54366 -0.627524
309 1 Ar 10.2815 12.7181 1.49525 -0.458519 -1.03207 1.31999 6.05228 -0.480357 -0.230589
709 1 Ar 11.6315 12.0146 2.25315 1.127 0.22196 0.550526 2.13816 -14.2993 -5.77612
3912 1 Ar 12.065 12.7494 0.294205 -0.219066 -1.19586 0.416192 15.9132 -1.68643 4.50608
270 1 Ar 12.4031 11.9258 1.45812 -1.02299 -0.491869 1.18009 -2.61379 -10.022 -8.43882
316 1 Ar 12.5824 11.2956 2.35055 0.726415 -0.477332 0.720215 11.6576 33.3708 16.1823
313 1 Ar 14.4826 10.5465 16.4755 0.0241061 1.03807 -1.82912 3.27196 1.4624 2.19538
315 1 Ar 14.3334 10.8787 0.830355 0.688265 0.0263161 -2.0154 -20.6307 -24.6662 -21.2252
317 1 Ar 14.6702 11.703 1.27441 -0.411214 0.149121 1.44377 4.84383 23.1743 -5.45779
353 1 Ar 13.5278 11.8917 1.53009 -1.07003 -1.31049 -0.617107 -20.8956 -11.2809 6.709
275 1 Ar 15.2719 11.1272 0.298952 -0.486412 0.834791 -1.29615 -6.44058 -29.7492 -7.61678
319 1 Ar 16.5369 11.421 0.724873 1.05489 0.351476 -0.0525057 -21.2441 8.64659 21.0499
284 1 Ar 0.773274 12.2633 1.47327 2.02052 0.77508 -1.18856 22.5834 6.77282 17.6046
682 1 Ar 0.834677 13.4267 1.61933 0.0738637 -0.530207 -0.373257 3.84551 -5.94305 -1.92168
3923 1 Ar 0.600193 12.5398 16.2771 -0.698318 0.538864 0.243857 0.915131 22.779 28.9209
725 1 Ar 1.59785 12.2176 0.791798 1.2745 0.0282776 -0.477706 -5.88558 14.2415 9.86756
727 1 Ar 1.89373 12.298 1.90276 0.963797 -0.818608 1.72963 -23.9143 -13.7813 -17.1103
686 1 Ar 3.40905 12.8283 16.7628 -0.292439 -0.191601 -0.705392 43.0016 16.9989 -6.59658
332 1 Ar 3.62876 14.1752 16.5897 0.502153 0.179951 -0.0163258 -7.80547 -16.4711 -2.07854
327 1 Ar 4.54535 11.897 0.0647773 0.403716 0.692582 0.759385 7.90592 24.4973 -4.04809
733 1 Ar 5.37355 14.0249 1.00639 0.759319 -0.607184 -1.09077 4.33674 3.95794 -8.40768
696 1 Ar 4.87251 12.031 1.31843 0.701605 0.120481 1.32919 -6.16929 -9.38353 11.9736
690 1 Ar 3.71798 13.9817 0.825728 -0.321287 0.902086 -1.64985 5.73057 -3.73513 15.33
735 1 Ar 4.85922 14.1399 1.89944 0.536192 -0.0639295 0.461387 3.86212 12.8654 -10.0611
694 1 Ar 6.32434 13.6043 0.443549 -0.179814 0.232221 0.261074 -6.1851 -8.01624 -14.2551
300 1 Ar 7.94313 12.927 16.3386 1.85165 1.47872 -0.649876 22.9147 2.1981 3.04335
339 1 Ar 6.76016 14.2361 1.14084 -0.250249 0.222773 0.18372 8.81483 17.4949 6.32327
295 1 Ar 6.57842 12.2885 0.346382 -0.781877 -0.486468 -0.96527 -15.7338 12.1215 -16.0406
302 1 Ar 7.36792 13.0265 0.516789 -0.172279 -1.08608 0.23839 2.25891 2.01835 5.39017
343 1 Ar 9.0429 14.2779 1.03358 -0.672169 -0.254738 1.1645 -4.96361 18.3034 -6.01788
3903 1 Ar 8.29904 12.6136 1.28732 0.161999 0.595617 0.38097 -5.95511 3.6008 -4.44956
305 1 Ar 9.52447 14.2578 0.0924501 1.15356 -0.164372 -0.748879 -12.9667 -14.6986 17.3172
308 1 Ar 9.7921 13.5289 0.967037 0.918939 -0.0189433 -1.38939 3.65686 -1.20902 -5.20896
3905 1 Ar 9.46771 13.2494 16.4441 0.0981423 -0.88196 0.375009 -15.5175 -6.79772 21.9915
312 1 Ar 12.1268 12.9895 1.37784 -0.243317 -0.152645 0.0859103 -3.42192 0.871172 -1.85276
307 1 Ar 10.9192 13.8605 1.0967 0.524459 0.0685732 -0.588209 15.5865 -1.89489 9.6751
3947 1 Ar 10.9271 13.0146 0.472547 0.223801 1.16175 0.125383 1.91148 -0.58699 2.00688
310 1 Ar 13.0343 12.6454 0.919728 0.136681 0.267238 0.768835 6.97396 2.32948 0.469622
352 1 Ar 12.2737 14.0573 1.552 0.810265 -2.27245 -0.292085 11.6165 -15.8189 -17.8498
355 1 Ar 13.274 13.1188 1.84623 1.31189 -0.766305 -0.292988 4.19807 4.82162 -4.60182
356 1 Ar 12.8071 13.6716 0.594016 -0.473868 0.66761 -1.54809 22.725 -8.44346 0.578407
357 1 Ar 15.4856 12.9867 0.97749 0.642568 -0.334553 -0.789205 -0.687718 -1.26168 1.57167
318 1 Ar 15.3026 12.105 2.16767 0.0857525 1.6773 -0.406225 57.6657 4.22281 -9.71086
360 1 Ar 14.1869 12.6294 1.35138 0.326138 1.4254 0.112547 9.53684 21.794 7.3383
322 1 Ar 16.3537 12.8321 0.32827 -1.42928 -0.060674 -0.690495 -5.45979 -1.50253 0.975473
3884 1 Ar 15.5391 11.9844 0.719734 -0.37618 1.15111 0.277143 15.614 14.9565 16.6694
328 1 Ar 0.561938 12.6559 0.566393 0.934305 -0.763507 -1.81552 4.87284 11.2583 -12.0619
722 1 Ar 16.1881 14.7462 1.58775 0.233527 -1.17641 -0.151847 11.8973 -5.35256 -13.8972
365 1 Ar 0.808554 13.7591 0.544842 1.56645 -0.991315 0.898672 -16.3756 -12.6652 11.3448
765 1 Ar 0.35597 14.739 0.75098 -0.627551 0.118539 -1.1607 3.32784 13.3608 -2.78923
726 1 Ar 2.25834 14.1464 16.517 -1.3273 0.345738 0.0880583 7.94656 -5.49884 2.24107
367 1 Ar 2.205 14.3351 0.932433 0.315745 -0.816079 -0.911281 0.772339 -6.85252 -5.64681
766 1 Ar 1.62104 13.2758 0.154944 -1.08039 -1.2495 -0.280144 13.5973 -9.49787 -8.48201
371 1 Ar 3.05412 14.7598 0.468226 -1.36281 0.261791 -0.359973 -0.246098 8.99739 0.186913
336 1 Ar 4.22059 14.9557 0.399151 -0.981852 0.314002 -1.11867 -15.7369 -3.54934 -15.8254
732 1 Ar 2.79376 13.4653 0.577477 -1.09963 1.16801 0.892529 -1.94069 3.74874 -7.63404
769 1 Ar 2.99674 14.574 1.62041 -0.037976 -0.533918 0.240833 4.90581 -3.58317 7.09807
729 1 Ar 4.69407 12.9872 0.862678 2.37308 -0.306381 -0.328583 -7.73506 5.86702 -8.52387
736 1 Ar 4.89012 15.1685 1.11961 1.30466 -0.545825 0.99615 29.5827 7.62999 7.14849
334 1 Ar 6.84523 15.984 0.159877 -0.149326 -1.66534 -0.479927 -1.17579 2.81199 4.56802
740 1 Ar 5.92817 14.6693 0.382483 -1.46601 -0.305008 -1.54834 5.021 6.89528 -4.16781
338 1 Ar 7.30702 15.2244 1.00724 0.125719 0.407489 -0.399316 -7.15816 -3.22053 7.10128
379 1 Ar 7.95087 0.202538 0.0312446 0.551742 -0.881899 -0.610452 14.4901 10.1713 4.6271
337 1 Ar 7.06498 14.758 16.7505 2.09381 -0.111932 0.204904 -13.0028 0.175074 11.5656
3944 1 Ar 7.86011 14.3491 0.633989 -0.169016 1.36167 -0.855151 -3.94929 -10.7778 3.28252
779 1 Ar 9.24563 15.493 0.934744 0.524233 -0.441396 0.409231 -3.95366 3.70533 -16.5793
345 1 Ar 10.1042 14.7098 1.02127 -0.290494 -0.639871 -0.976581 -6.46684 -1.15444 -37.2502
385 1 Ar 10.5583 14.0378 0.158922 -1.99296 -0.384317 -1.21273 7.36611 -4.14202 -4.7273
3943 1 Ar 8.54965 14.952 0.127671 0.562486 -0.486612 0.742205 28.5337 -6.72125 -2.8481
347 1 Ar 11.9489 15.5865 0.397297 0.156811 -1.06008 -1.72554 -2.3729 -1.14723 0.802562
346 1 Ar 10.8574 15.4713 0.699948 -1.25958 0.0385097 0.0884438 -11.7208 -12.7085 -24.071
389 1 Ar 11.6284 15.9871 15.9764 0.329478 0.319857 -1.04439 15.6522 -8.64024 -16.6759
391 1 Ar 14.14 13.8706 1.38069 -0.749737 0.34146 -0.720487 -5.91298 -0.608608 10.2265
393 1 Ar 13.6794 14.5172 0.488713 -0.366505 0.00839732 -0.0178308 -5.79918 -15.1623 7.50743
350 1 Ar 12.6515 14.6962 0.792867 0.338431 -0.438053 -0.296604 -5.00159 14.4055 -1.33601
3993 1 Ar 12.3289 14.6831 16.5328 -0.767606 0.0370782 -0.640383 4.17311 -8.45361 5.40865
793 1 Ar 14.2225 14.83 1.90077 -0.533469 -1.82354 -1.47869 4.97905 -1.42605 -2.29034
4000 1 Ar 14.9045 13.7915 0.667945 -1.09147 0.262355 -0.944857 -4.80207 -12.7804 -10.0389
37 1 Ar 15.323 15.2757 16.6886 0.535958 0.802965 0.464107 -10.0123 -10.0707 -3.59718
758 1 Ar 16.5646 13.9238 0.685973 0.29217 -0.190622 -0.47965 -1.36768 -22.7323 -11.841
400 1 Ar 15.7024 14.4609 0.688517 0.337083 0.465773 -0.683034 -8.70981 19.7818 2.80065
363 1 Ar 0.522886 15.4962 1.63299 0.265281 1.32804 0.867101 -4.81101 -5.38574 3.76622
399 1 Ar 16.1955 15.8243 1.57142 -2.83045 0.573377 1.4116 15.5407 13.9285 1.29815
368 1 Ar 1.34106 14.5168 0.156913 -0.423952 1.12508 1.25788 4.74598 8.70631 -3.20568
372 1 Ar 2.48697 16.3274 16.3061 -1.09645 -0.312706 -0.433525 12.1638 0.789282 -3.00587
762 1 Ar 2.0045 15.2895 0.422285 0.126174 1.01661 -1.2397 -4.27359 1.6282 17.3947
409 1 Ar 2.38188 16.2817 0.575158 0.455854 1.1431 -0.841711 -5.0691 -1.10281 2.87441
370 1 Ar 3.45434 15.9687 0.118225 -0.116174 -0.0180444 -0.742454 -11.0437 -7.53787 -14.7864
373 1 Ar 5.22218 15.6329 0.133881 -0.121292 -0.222145 -0.0666136 9.24086 -15.6724 -8.21311
374 1 Ar 4.84049 0.111692 1.48419 1.15985 -0.612844 0.504067 -5.56869 18.6422 -21.7578
376 1 Ar 3.55723 0.407363 16.7539 -0.027277 1.70703 0.281744 9.85914 -10.1045 -17.9889
375 1 Ar 6.46226 0.448084 0.939905 0.624092 1.10345 -0.168806 16.4262 -19.6418 -4.08621
380 1 Ar 7.59338 16.6764 1.03239 -0.117721 1.01828 0.0784453 -3.0159 -1.26388 -7.79721