ITEM: TIMESTEP
3100
ITEM: NUMBER OF ATOMS
4000
ITEM: BOX BOUNDS pp pp pp
0.0000000000000000e+00 1.6795961913825074e+01
0.0000000000000000e+00 1.6795961913825074e+01
0.0000000000000000e+00 1.6795961913825074e+01
ITEM: ATOMS id type element x y z vx vy vz fx fy fz
47 1 Ar 1.29114 1.47726 0.861116 0.726134 -1.66992 0.0966865 -9.9773 -15.1486 -15.2372
401 1 Ar 0.453684 0.677244 0.854752 0.964062 -1.17786 -0.400017 -0.927395 1.54965 11.9736
412 1 Ar 1.9015 0.274604 1.2044 -1.30853 1.18788 1.30282 -19.7386 22.7354 17.8785
49 1 Ar 2.45728 0.283769 0.00679972 0.428729 -1.05085 -2.03158 -15.028 9.08511 -17.0362
449 1 Ar 2.1398 1.31389 1.33387 0.793045 -0.591355 -0.0758852 14.1973 7.95125 16.0728
3649 1 Ar 3.08527 1.1905 16.7352 1.27841 0.7311 0.200238 5.38201 7.41893 8.24221
3652 1 Ar 2.83816 0.681966 0.906419 0.168916 -0.543413 -1.71553 12.3307 -9.74046 -12.7903
413 1 Ar 3.93752 0.462911 0.924943 -0.246818 0.394591 0.115732 -2.43748 1.07766 1.23902
93 1 Ar 4.24095 1.0493 0.00644129 -0.324481 -2.49304 -0.74155 -15.6582 2.7521 -16.161
15 1 Ar 4.56374 1.50714 0.851902 -0.379228 -0.385693 0.73162 2.34904 -0.986284 21.9578
457 1 Ar 5.68681 1.29529 1.00781 -0.142829 -0.791146 0.278697 -15.8498 1.45089 10.9081
374 1 Ar 5.00256 0.188862 1.33639 -0.617958 0.302544 -1.3012 5.18219 -3.89894 -0.732876
17 1 Ar 4.77976 0.181272 0.279501 -0.11831 0.196871 0.985154 -7.01652 -1.90111 7.8807
417 1 Ar 7.50256 0.741065 1.05921 -1.52242 -0.328391 -0.606132 3.71995 16.9255 -11.9755
459 1 Ar 6.44744 1.24121 0.306354 -0.604209 1.61143 0.987963 -3.91961 -4.43234 -5.07855
375 1 Ar 6.45347 0.557153 1.2185 -0.757869 0.404106 -0.657782 -11.8241 1.8006 -38.7033
18 1 Ar 8.72519 0.555819 1.35464 0.793031 -1.33252 -0.395067 -4.71117 -17.1786 -18.87
458 1 Ar 8.41273 1.4554 0.360866 -0.567996 0.810844 -1.76563 10.2105 4.65102 3.99519
379 1 Ar 7.92047 0.568691 0.0415021 -0.366271 1.52324 0.201164 -2.53672 -4.32862 9.25321
24 1 Ar 9.45285 1.37281 1.07474 -0.956356 0.311352 -0.38857 -8.89883 -5.98108 1.44409
25 1 Ar 10.5144 1.18959 0.924552 0.166067 0.611333 0.874843 14.5894 11.6479 -3.17883
65 1 Ar 9.9233 0.523253 0.442129 -0.991571 0.645541 -0.0412167 -5.46835 -17.986 4.52812
27 1 Ar 11.5691 1.29709 1.19022 1.92047 -0.914395 -0.0483219 -13.1721 6.70398 -8.17503
386 1 Ar 11.9175 0.325364 1.40225 0.729927 -1.11138 0.179282 -18.1669 -14.2265 -11.0812
31 1 Ar 11.9953 0.641439 0.166621 1.33131 -0.249997 -0.0520908 2.82264 6.21233 4.79059
3627 1 Ar 10.9324 0.663206 0.0368196 0.216723 0.88632 -2.04088 2.24049 -18.4287 6.96521
33 1 Ar 13.0255 0.404752 0.494073 -0.740568 2.09676 0.824996 -17.7503 0.026378 0.88238
429 1 Ar 12.542 1.10537 1.41444 -0.288082 -0.53101 0.173062 36.7909 14.2831 -2.42844
433 1 Ar 13.3385 0.19397 1.46026 -0.903662 -0.444969 0.509977 -11.236 5.71529 17.3225
3631 1 Ar 13.6482 1.20729 0.355158 -1.16236 -0.668408 0.338259 10.823 15.5194 1.01649
34 1 Ar 14.3078 0.299079 0.866885 -0.0385913 0.847521 -0.903435 1.02376 4.02303 -1.75001
477 1 Ar 14.6924 1.39988 0.714149 -2.24172 -0.881511 -0.657572 6.38401 -0.460172 -3.85009
473 1 Ar 13.9178 1.26222 1.4653 -1.15829 -0.377329 0.934503 -8.28507 -4.31695 -5.47868
79 1 Ar 15.3912 0.185671 0.585804 0.0759008 0.944091 -0.20472 -1.52398 10.0013 -18.4799
43 1 Ar 15.8627 1.10751 0.272314 0.897845 1.17939 1.2046 6.9868 0.795539 6.31945
441 1 Ar 16.2208 1.3224 1.37462 -0.36937 -0.718766 0.574793 28.0211 16.4168 -9.88178
798 1 Ar 16.3085 0.227761 1.42246 0.196933 -0.729637 -0.377388 3.4025 7.8235 26.5709
83 1 Ar 0.091536 1.51709 0.389857 -1.22744 1.24089 1.02311 -3.81299 12.3318 -1.98189
402 1 Ar 0.517275 1.81191 1.44143 -0.551229 -0.425731 -0.378936 -15.6172 -1.23441 12.6277
442 1 Ar 2.03468 2.41658 1.17287 0.0276581 0.679478 -0.549908 -1.34785 -5.93013 -3.83254
481 1 Ar 0.81327 2.32154 0.547709 0.363828 -0.0705602 -0.695347 -4.18561 18.541 -10.5103
446 1 Ar 2.96834 2.42331 0.366089 -0.620555 -0.781319 -0.310647 -19.3278 22.0744 27.3744
3643 1 Ar 2.1857 1.7287 0.260341 0.461561 -0.687782 0.490212 -6.29192 -4.04453 -1.33161
12 1 Ar 3.37763 1.60854 0.932463 -0.298946 0.0496571 -0.438485 5.59174 1.70815 3.15415
453 1 Ar 4.20627 2.51653 0.782986 -0.541046 -0.300933 0.778739 1.5649 5.76784 2.66884
53 1 Ar 5.24256 2.31261 1.3157 0.498026 -1.47398 -0.729333 -1.30994 3.39343 -5.73986
490 1 Ar 5.71076 2.79798 0.341208 -0.562223 0.241883 -0.26539 56.4107 -1.85893 4.94551
456 1 Ar 5.17714 1.98243 0.11743 0.944058 0.410655 -0.198234 -0.45638 -20.8595 7.59215
60 1 Ar 7.42796 2.34825 0.761998 -0.632231 1.33051 -0.185117 -3.50541 -2.43745 3.43214
95 1 Ar 6.38687 2.12144 1.05629 -1.30168 -0.971499 -0.266924 -7.82052 1.59044 -20.7639
94 1 Ar 7.92203 3.08317 0.13345 -1.24069 -0.31218 0.838034 2.47479 -5.42758 -4.00637
58 1 Ar 8.51855 2.39643 0.964189 -0.414882 0.0777071 1.02634 2.55147 3.33611 1.94276
461 1 Ar 10.0003 2.27889 1.0524 -0.675944 -0.0659438 0.356737 -45.7059 -53.0881 6.02245
68 1 Ar 9.31629 2.18881 0.277225 -0.320377 0.476809 -0.7188 -9.9808 9.52773 -3.71895
107 1 Ar 10.4975 2.49731 0.0722633 1.10863 0.176657 0.0652287 -14.0051 10.7278 10.3589
69 1 Ar 11.1129 1.67605 0.153231 0.627542 1.26959 -1.19822 12.1756 1.78873 2.53577
106 1 Ar 11.4865 2.84671 16.6157 -0.221453 0.566099 0.713136 9.44985 -21.6974 -10.3321
67 1 Ar 11.7938 2.44063 0.888137 0.601226 1.35865 -1.79561 -21.468 10.9374 -12.8292
32 1 Ar 12.2105 1.8014 0.215762 -1.51463 0.404945 0.306778 7.06045 -13.2626 -11.892
73 1 Ar 12.8332 2.33212 0.965522 -0.604438 0.702369 -0.433825 8.57234 -24.5775 7.95315
110 1 Ar 12.5595 2.87832 0.125685 -1.15932 -0.789683 -0.654902 -8.58217 14.019 -7.61999
36 1 Ar 13.9775 2.24078 0.886095 -0.667207 -0.147303 -0.248821 -1.77056 -3.03825 -5.85447
3714 1 Ar 14.4765 2.41726 16.7119 -0.518367 0.387835 0.477017 -11.7523 6.96695 20.2717
74 1 Ar 14.9763 3.01826 1.06536 -0.93993 1.48877 0.983906 -0.895916 -5.05072 2.39438
44 1 Ar 15.6075 2.14442 0.860287 -0.779828 1.32351 -0.321223 -13.3261 -14.5329 -18.46
117 1 Ar 16.4593 2.59422 1.13899 0.80022 -0.3808 0.509539 26.0656 11.2481 4.49112
3683 1 Ar 16.2576 2.55611 16.7866 -1.30377 0.931585 -0.832192 9.27936 -16.2304 5.08675
525 1 Ar 1.09849 3.33494 0.889863 -0.266249 -0.143846 -2.0495 6.57448 -5.48363 -3.26528
120 1 Ar 0.205824 3.78237 1.26144 0.843826 0.658172 -0.0946438 -19.1443 -3.84319 -2.08703
3724 1 Ar 0.456495 4.22858 0.347452 0.153015 0.150605 1.00361 0.396212 9.66165 -3.98706
84 1 Ar 0.346548 3.22043 0.0302096 1.17963 -0.169785 0.72621 -5.19342 14.0495 13.7596
521 1 Ar 1.21858 4.37346 1.11212 0.154521 -1.40821 0.227763 -1.53844 -2.22031 -7.19091
48 1 Ar 1.81901 2.86637 0.0787274 -0.153294 0.380949 -0.014419 -2.91984 -16.8161 48.2559
485 1 Ar 2.19916 3.47463 1.14306 -0.80989 -0.428546 -0.102058 -13.4989 -10.108 22.4587
50 1 Ar 2.96392 3.63321 0.517565 -0.809411 -1.01186 0.104617 -6.83446 -24.2248 -14.6817
123 1 Ar 2.04747 4.15997 0.389596 0.618687 1.02184 -0.514302 -3.20097 13.5688 -8.05147
90 1 Ar 3.77701 4.17593 0.521278 0.5668 -0.612983 0.955894 34.1522 19.5358 -9.99406
529 1 Ar 5.00658 3.33065 0.729 2.60607 -0.394016 -1.87936 -45.9217 21.7059 30.8364
131 1 Ar 5.37994 4.60363 1.52785 -0.461135 0.291743 1.84785 12.4271 -5.85661 9.94631
136 1 Ar 5.88662 3.83499 0.852293 0.332599 -0.279101 -0.662993 7.45015 31.1785 -12.1454
894 1 Ar 5.95001 3.10964 1.54541 0.0212399 0.452134 1.22639 -12.6321 -11.244 11.2322
494 1 Ar 7.51615 4.01757 0.386363 -0.601266 -0.594656 1.20564 -4.14895 6.54386 2.27784
500 1 Ar 6.74251 3.21727 0.791319 -0.438253 -0.8375 -0.170321 5.64645 0.33895 -6.03647
533 1 Ar 6.60787 4.56689 0.218282 0.449907 -0.143724 1.48485 34.9289 -22.2163 -11.7218
537 1 Ar 7.68901 4.179 1.42227 -0.147017 0.399012 1.20399 11.6325 48.6674 3.58305
898 1 Ar 7.80382 3.2431 1.25135 -1.10212 -0.0288343 0.0161424 -0.246555 -44.5523 -4.98903
144 1 Ar 8.51901 3.79517 0.707246 0.364856 0.628576 0.0845805 14.5626 6.3636 0.621508
101 1 Ar 9.38297 3.21114 1.40616 -0.892998 -0.386308 0.343296 -8.9803 -33.9867 -19.7499
103 1 Ar 10.3643 3.14152 0.958838 -1.3785 -0.899019 -0.688716 23.1441 53.9744 -13.5486
102 1 Ar 9.61006 4.09288 0.884447 1.09557 0.20699 0.0933041 -9.67955 -12.7791 1.12211
72 1 Ar 11.2243 3.75803 0.162374 1.57098 0.781439 -1.3657 -1.78021 23.4388 16.5729
112 1 Ar 11.7732 4.6472 1.3341 1.83877 -1.41103 -0.792499 -8.12277 -13.7668 1.7467
113 1 Ar 12.3553 4.14365 0.566374 -0.956869 1.04982 -2.04088 14.7304 20.871 -27.877
513 1 Ar 13.1996 3.2486 1.1996 0.266857 0.994082 -0.399293 3.49623 16.6319 -5.26502
155 1 Ar 13.3344 4.5575 0.76753 -0.732918 1.05391 0.0944791 -11.2952 -9.11856 9.25292
3716 1 Ar 13.3425 3.74323 16.7614 -0.548509 -0.881975 0.388528 7.0582 -9.303 8.80026
115 1 Ar 14.1763 3.68264 0.919387 0.631813 -1.14648 -0.483717 -12.227 -5.20484 -10.5569
114 1 Ar 15.2547 3.12693 0.043821 0.284998 -0.850608 1.17276 -1.43012 -0.841136 -2.2677
593 1 Ar 15.2104 4.27154 0.63368 1.21958 -1.17381 -1.50227 -1.2325 -2.59953 -12.4776
200 1 Ar 15.6934 3.74999 1.41963 -0.923181 1.33986 1.02819 2.95719 -10.5682 13.7173
124 1 Ar 16.2062 4.50606 0.937805 1.07534 -0.81707 0.0284474 12.4517 9.96981 -2.05629
81 1 Ar 16.1324 3.4722 0.443844 -0.287738 0.0839647 -0.515977 11.4913 19.964 12.3486
163 1 Ar 1.31054 5.59057 0.743541 0.737521 -1.21865 0.415847 -6.72343 -14.2127 20.1669
157 1 Ar 0.250618 5.18448 1.17023 -0.2543 0.799307 0.60308 3.99689 1.16608 -8.25723
561 1 Ar 0.30857 5.69413 0.0629408 0.166823 -0.939235 -0.248514 0.96172 -3.90672 7.11173
565 1 Ar 2.12299 4.93526 1.23472 -0.255893 0.227233 -1.3099 -15.4819 -7.53888 -6.3922
128 1 Ar 2.52116 5.92061 0.929763 0.0516944 0.00379885 -0.35968 0.544038 -8.01206 1.22554
165 1 Ar 3.01201 4.87607 0.572766 -1.00883 0.676669 -0.299479 2.1268 -8.50833 25.3772
491 1 Ar 3.7702 5.55986 0.733296 -0.775841 1.22984 0.327217 4.84859 21.4896 -3.79538
133 1 Ar 4.90322 5.32206 1.01129 -0.566125 -0.0729629 0.446092 -9.77007 17.0915 -15.6563
573 1 Ar 6.37967 4.87567 1.16667 1.95592 0.0387007 0.188326 -18.5608 -12.5456 27.942
96 1 Ar 5.76207 5.03444 0.262882 -1.83296 1.63707 -0.0259997 -55.5161 12.6526 16.4523
534 1 Ar 7.3367 5.16867 1.02564 0.441742 0.166748 0.909932 14.0871 -4.59277 10.1294
139 1 Ar 6.79432 5.81072 1.68063 0.417355 -0.456266 2.19922 2.75307 18.6258 -21.6915
3735 1 Ar 6.41009 5.75042 0.604974 0.0349957 -1.33526 -0.19714 14.0115 21.583 -3.22533
539 1 Ar 8.29463 5.70021 0.892627 -0.242731 0.461328 0.527245 -14.9286 -4.06585 -1.64315
541 1 Ar 8.96909 4.95078 0.810152 -1.22003 -0.503809 -0.186072 1.85805 -40.0931 11.264
145 1 Ar 10.0723 5.04239 0.860042 0.591898 0.445773 -0.0468584 -10.5768 12.601 15.1651
546 1 Ar 10.7161 5.87462 0.967601 -0.83452 -0.924325 1.50115 -8.25442 15.2183 -4.48463
147 1 Ar 11.0811 4.99963 0.573718 0.874919 0.747642 -0.777971 9.92269 -23.0041 -2.8527
151 1 Ar 11.8478 5.68915 1.18204 1.03668 -0.232562 0.309264 -81.5118 -17.0133 -14.855
189 1 Ar 11.2861 5.79572 16.7481 -1.11423 1.01048 -2.90132 9.08986 -9.31247 5.38195
153 1 Ar 12.132 5.01912 0.0100873 0.519048 -0.577835 0.0533554 23.7707 14.2112 13.9247
591 1 Ar 12.6742 5.219 1.33834 0.0653068 -0.89866 0.390532 31.3237 -20.9946 -1.56522
550 1 Ar 13.2364 5.53981 0.298376 1.32471 -0.942759 1.04702 -10.0579 0.275143 18.9289
159 1 Ar 14.2446 4.61361 0.310663 0.391024 0.613286 -0.372461 7.83006 9.28587 -3.31178
599 1 Ar 14.9899 5.35243 0.972744 -0.593215 -1.32733 0.478574 11.5252 -0.201846 1.02344
596 1 Ar 13.9828 5.33367 1.16161 0.117858 0.470378 -1.22806 -13.3206 -5.39 -14.8373
121 1 Ar 15.0669 5.15121 16.6457 1.06374 0.119391 0.815865 -4.71804 7.46 22.372
160 1 Ar 15.8985 5.7049 0.494209 0.287215 0.420506 0.265615 2.08808 -1.0986 2.14499
605 1 Ar 1.20562 6.63216 1.04521 -0.0173099 0.235678 -0.704767 38.7387 13.5147 17.4802
158 1 Ar 0.263352 6.34236 1.06458 -0.0493565 -0.796083 0.756193 -31.0968 -9.21483 -1.09261
602 1 Ar 0.608936 7.67264 1.00077 0.768934 1.76957 0.298639 -4.61179 -3.07794 3.72161
205 1 Ar 0.754754 6.78728 0.195443 -2.09019 0.887104 0.572042 8.66873 6.98046 -26.2525
522 1 Ar 2.12515 6.86372 0.623051 0.855193 -0.666002 0.871858 11.8292 -6.25314 -47.9178
608 1 Ar 1.65066 7.75608 0.689399 0.00934546 0.670819 -1.54733 -8.65049 14.8177 1.16248
173 1 Ar 4.2381 7.10866 1.10386 -0.992974 0.911054 0.582838 -14.5887 19.1158 23.9547
167 1 Ar 3.0901 7.4286 0.691322 -0.935877 1.02635 0.18843 3.61221 -7.69491 3.45452
132 1 Ar 3.01271 6.43471 0.104765 -0.215881 0.0851767 -0.917043 0.177613 22.2804 10.2739
130 1 Ar 4.36672 6.46167 0.347055 -0.192082 -0.200412 1.6424 -0.353255 -11.3883 -18.3669
3736 1 Ar 5.02738 6.44239 1.23672 0.0700732 -1.23889 -0.322131 8.02774 -10.3227 15.1868
174 1 Ar 5.27371 7.29996 0.661225 -0.53651 1.74882 1.11479 -8.66583 -5.21006 13.6625
3734 1 Ar 5.37705 6.07484 0.304838 -0.476427 0.455306 0.0153483 -0.906418 -7.80803 3.91156
177 1 Ar 6.16581 6.84834 1.09306 -0.265582 1.0521 0.889791 -6.66564 -9.95465 -3.50657
179 1 Ar 6.99261 7.3967 16.7423 -0.94403 -1.37568 -1.14221 -9.30001 -21.286 34.4223
180 1 Ar 7.34706 6.42424 0.991016 0.878402 0.246101 0.249265 2.57218 1.8948 -5.17172
183 1 Ar 8.75535 6.59019 0.993835 1.03408 -1.10599 -0.319468 -22.2398 52.6096 21.5772
219 1 Ar 7.91831 7.3931 0.739965 -0.800632 -0.348226 -0.859176 13.2331 -21.1896 -11.2979
148 1 Ar 9.39494 5.93667 0.692201 0.0747486 0.728878 0.376643 42.0678 -17.3378 -25.5789
585 1 Ar 9.82705 6.74893 1.39094 0.06582 -0.727803 0.617579 -0.104473 -6.32813 -1.59611
225 1 Ar 9.66383 7.78247 1.08944 0.257433 -0.374503 0.46479 3.05083 -43.437 -39.6825
181 1 Ar 10.304 6.92806 0.338524 0.614393 0.107292 0.642851 -12.9562 -11.3373 3.27756
187 1 Ar 11.5447 6.58014 0.609683 -1.19068 -0.233185 0.283315 -12.2334 -0.609866 21.4496
586 1 Ar 10.6901 7.46895 1.21444 1.06251 0.0195834 0.0748503 7.96247 3.032 0.393799
191 1 Ar 12.349 6.28032 0.109089 1.02892 -1.07965 -0.0545677 15.6206 -31.4448 -7.76297
590 1 Ar 13.4562 6.39264 0.921459 0.208768 -1.29269 0.058703 -20.2841 9.20457 10.1176
190 1 Ar 12.4646 6.40314 1.28966 -1.43951 -0.786437 0.0897131 31.8965 46.1203 10.8196
3791 1 Ar 12.6685 7.20917 16.6681 -1.06426 0.273713 0.0955548 8.29383 24.9111 2.86035
3760 1 Ar 14.2447 7.2574 0.90336 -0.361867 -0.511006 -0.918041 -5.75407 -10.4966 -0.660376
3793 1 Ar 14.2809 6.11164 0.463974 2.1609 2.00842 -1.02039 33.3351 -3.28751 -10.8146
164 1 Ar 15.4433 7.63886 0.878307 -0.197102 0.161558 -0.554768 -8.83604 4.33051 -11.1371
199 1 Ar 15.2143 6.48829 1.06799 -1.1339 0.425268 -0.540082 -1.14511 0.543461 -2.83335
3799 1 Ar 16.4372 7.1896 0.677237 0.262192 -1.3093 0.0298353 -2.02655 22.3443 21.9554
645 1 Ar 1.51305 8.5479 1.5635 -1.46907 -0.685458 -0.323401 -14.1131 -5.01996 -11.6604
638 1 Ar 0.287141 8.73433 1.45592 0.872142 0.266398 0.729627 4.97939 2.5424 22.2457
3808 1 Ar 0.778479 8.69286 0.595056 -1.93851 0.108324 0.437346 15.6672 -12.6962 -16.2577
609 1 Ar 2.40319 8.51708 0.922989 0.179731 0.259659 0.643976 -4.47042 -17.5154 -17.3664
207 1 Ar 2.73565 8.76237 16.5995 0.885054 1.60888 0.869874 -14.6644 -6.3402 7.75509
170 1 Ar 4.29312 7.81376 0.31382 -0.401436 -0.526848 -1.66314 8.23332 -4.4665 -2.56328
210 1 Ar 3.52644 8.38438 0.751228 1.06942 0.303475 1.11568 -1.61038 15.3556 3.03385
3772 1 Ar 4.58242 8.88582 0.515383 0.674607 -0.747016 -1.38458 -7.17161 -4.73472 -0.723987
175 1 Ar 5.3126 8.73957 1.27522 -1.15567 1.05742 -1.27069 7.57384 2.03722 5.7824
3774 1 Ar 6.0981 8.24225 0.683636 0.864679 -2.43947 0.987649 3.6869 -15.3839 5.8584
215 1 Ar 6.78755 8.77051 1.30039 -2.60773 1.05384 -0.76896 15.1922 -16.5147 19.6558
178 1 Ar 6.94048 7.54442 1.08903 0.638188 -0.319536 -0.34021 -12.1114 -4.2619 -8.98986
618 1 Ar 7.5213 8.26737 0.250068 -0.38433 -1.02963 0.282303 21.7682 -9.37509 16.5075
184 1 Ar 8.70117 8.15761 0.867238 0.856484 -1.37775 0.345745 -23.4033 5.41035 12.886
621 1 Ar 7.68257 8.15954 1.37118 0.24159 -1.01974 -0.0142895 14.8818 15.9575 18.0262
582 1 Ar 10.5054 8.6014 0.977405 -0.0428821 0.638006 -0.924488 -10.0968 3.3001 19.4502
625 1 Ar 9.48861 8.80887 0.688698 -0.357805 -0.160883 1.27249 5.4246 7.26198 -1.10032
188 1 Ar 10.3892 8.00874 0.148946 -0.339226 0.111826 -0.940067 -4.22384 -3.37498 -0.107849
192 1 Ar 11.7986 7.63241 0.85872 -0.256139 0.768099 -0.494292 6.00856 -0.246879 -1.90632
3836 1 Ar 11.3826 8.73077 0.461879 0.9445 -0.958645 -0.536489 9.61855 -21.427 -7.2403
3796 1 Ar 12.6627 8.20293 0.431097 0.17708 0.186213 -1.07615 -19.8445 1.6177 -12.1341
195 1 Ar 13.5096 8.71752 0.655455 0.944872 1.75248 -0.836835 8.60296 12.0667 1.58932
230 1 Ar 12.3398 9.13068 0.998623 1.49998 1.52591 0.0612866 -7.0911 -44.1528 -27.4214
3790 1 Ar 13.0038 7.37625 0.957321 -0.460994 0.0960504 0.597976 2.85252 -4.93183 5.20221
3800 1 Ar 13.7481 7.57066 0.030651 0.539226 -0.526113 0.906886 -25.6288 0.643044 -2.77111
3795 1 Ar 14.5398 9.51649 0.919389 -0.721844 0.969289 -0.579402 -4.1142 -3.59988 2.39461
197 1 Ar 14.478 8.35073 0.886924 0.460539 0.510713 -0.143357 6.19139 0.0264736 6.43967
237 1 Ar 14.3925 9.08207 16.5382 -1.35062 1.22634 0.223497 -19.4429 -23.4733 17.0183
634 1 Ar 15.3919 8.7834 1.41793 -0.574939 -0.267614 0.271327 8.02399 7.83311 -14.5379
198 1 Ar 14.7392 7.74792 0.0370989 -0.885075 0.963609 -1.52795 19.5613 0.11404 -5.32044
201 1 Ar 16.5192 8.57621 0.27448 -0.699131 -1.02996 1.47871 2.44433 -11.5224 19.9599
236 1 Ar 16.3253 8.05264 1.31145 1.7943 -0.600168 1.03753 -3.97051 1.2472 0.63494
3803 1 Ar 15.3421 8.76639 0.296382 -0.543502 0.161841 -0.248315 1.51518 -10.9426 1.92079
204 1 Ar 0.465423 9.66933 0.439634 0.714514 0.0425712 -0.551111 6.84251 9.74394 -13.634
243 1 Ar 1.28981 9.6647 1.22478 -0.35725 -1.23415 -0.206714 1.79417 -10.5419 -1.86905
279 1 Ar 0.688175 10.5966 0.889633 0.152302 -0.973917 2.13485 1.56079 7.70644 5.47134
242 1 Ar 1.47376 10.0241 0.223902 0.343984 0.799733 0.37042 3.15912 4.13042 7.16522
208 1 Ar 1.74658 8.97366 0.255389 -0.0116272 -0.785203 -0.0628581 -3.42463 14.9181 27.7782
245 1 Ar 2.53149 10.356 0.134052 -0.536504 -0.165404 -0.438139 -5.91151 -2.0307 -11.1731
247 1 Ar 2.01661 10.48 1.11879 -0.595261 -2.31596 -1.98587 -23.2391 13.3181 5.141
606 1 Ar 2.37436 9.5323 1.23453 0.711675 0.615023 -0.886909 -21.005 -8.92376 9.86972
211 1 Ar 4.27321 9.25896 1.50835 1.40392 0.40866 2.43226 -2.26326 5.89438 1.93555
612 1 Ar 3.19373 9.59179 0.667917 0.916439 1.19449 -1.16834 23.6449 -10.7266 -18.4795
689 1 Ar 4.1076 10.5039 1.55148 -0.32128 0.0141082 -0.445327 11.3537 -11.6949 -14.4885
213 1 Ar 4.30853 9.99902 0.521217 -1.58069 -0.149288 0.414101 -14.0307 -10.6152 7.89025
653 1 Ar 5.15057 9.89996 1.21515 -0.0926409 -2.18519 -0.51938 -17.0285 -10.7632 17.113
3856 1 Ar 5.07657 10.7389 0.597346 1.87164 -0.0255286 1.06317 17.3351 7.80162 -13.0743
3815 1 Ar 6.19081 10.2706 0.417415 0.367881 0.604742 0.0945652 -15.9101 4.66767 -7.12751
217 1 Ar 5.27161 9.67501 0.241825 1.09963 -0.502303 -0.272881 14.2033 -10.6684 -19.2198
651 1 Ar 6.10783 9.55566 1.28185 0.728891 -0.67208 -0.0895722 -5.79367 11.0552 -12.063
297 1 Ar 7.05522 10.0062 0.905589 0.716727 0.0982285 0.352213 -2.96376 7.88631 5.74904
3820 1 Ar 6.52022 9.12299 0.396525 -0.588972 0.24805 -1.48043 4.54495 20.6034 -23.6409
223 1 Ar 8.80079 10.0092 0.852326 -1.36974 -1.26824 -0.0197912 -0.635677 2.15323 -2.03908
218 1 Ar 7.61053 9.21511 0.60568 0.736117 -1.37642 0.707865 7.88342 1.4891 -19.1373
224 1 Ar 7.89007 9.1685 1.57489 -0.123235 0.358877 0.0362709 6.27346 9.87688 18.9134
669 1 Ar 10.5638 9.5927 0.520696 0.527744 0.670489 1.37781 1.3279 -3.38588 -5.31133
665 1 Ar 9.70388 10.5907 0.423598 0.133647 0.57332 -1.34803 -8.61903 3.42091 -11.9686
626 1 Ar 10.2273 10.2413 1.23898 -0.438164 0.380479 -0.35282 -5.17365 -29.054 -3.19987
628 1 Ar 9.24466 9.45012 1.72435 -1.4956 -0.423469 -0.0935984 -4.06404 7.70009 -21.4112
267 1 Ar 11.1941 10.4096 0.983175 -0.140461 0.0939356 -1.94223 -1.10421 7.65164 -11.9561
672 1 Ar 11.2707 9.44527 1.29563 -0.440904 -0.856542 -0.20497 10.5073 -12.288 8.32453
194 1 Ar 13.5519 10.0379 0.720664 0.475474 -0.658147 0.390802 1.58291 -7.43987 9.65342
3871 1 Ar 12.4555 10.0614 0.69925 -1.03078 -0.821544 0.338347 12.0704 7.32739 -0.582399
233 1 Ar 14.4487 10.1685 16.7904 -0.140541 1.42979 -0.67623 -9.47281 9.74073 8.22144
234 1 Ar 15.4284 9.7987 0.37675 0.732145 0.302952 0.282934 -4.88896 16.3107 8.67028
240 1 Ar 16.4439 9.43699 0.981722 -0.926114 0.649074 0.592568 -26.6463 -9.35233 0.600149
717 1 Ar 16.3984 10.4328 1.34108 1.97806 -0.709438 1.00998 -6.90692 7.85309 0.110582
282 1 Ar 0.629687 11.9959 0.267428 -1.1166 -0.152661 -1.1116 6.65752 -6.16056 -7.11508
212 1 Ar 3.02804 10.5677 1.02219 -1.95304 0.366169 -0.244956 21.0725 19.1333 10.4163
248 1 Ar 1.54936 11.1568 0.371991 0.737529 0.913257 -1.03576 -9.40743 -11.1271 -9.02416
287 1 Ar 2.27367 11.5349 1.01006 0.769159 -0.255491 -0.894546 32.3006 -0.318928 19.0491
649 1 Ar 4.09818 11.0451 0.606427 1.3501 0.375054 -0.81472 17.4366 -34.417 -0.746446
331 1 Ar 3.46062 11.7315 0.777969 0.323666 0.931713 -0.389263 -34.7146 41.4794 -12.727
327 1 Ar 4.71489 12.4016 16.6047 0.416132 0.803258 -1.74554 -1.15688 -3.37371 -6.2799
250 1 Ar 5.96182 11.4206 0.861802 0.791465 -0.2437 0.654712 -25.6099 -5.3198 28.0766
696 1 Ar 4.58512 12.4163 1.21505 -0.385302 -0.390979 0.261314 1.00588 -25.8938 14.1522
264 1 Ar 6.83746 11.6787 1.47177 -0.935487 -0.270507 0.376481 15.7962 -12.3349 -7.07663
257 1 Ar 6.81424 11.1615 0.329039 0.993689 -0.582235 -0.13106 19.7334 -18.4146 24.4438
301 1 Ar 7.74652 11.9165 0.673194 -0.0572353 -0.380304 0.31529 -4.3224 -8.53434 -2.91285
662 1 Ar 8.73572 11.4446 1.09149 -1.08494 0.272462 1.13706 -16.0321 1.03577 -21.304
259 1 Ar 7.73829 10.8037 0.970978 -0.266534 -0.0523273 0.544809 0.517707 13.5041 -8.37165
258 1 Ar 8.49664 11.1121 0.102441 -1.69425 -0.587771 1.41872 -2.07482 2.30363 -3.48543
668 1 Ar 10.4273 11.2779 1.27819 0.593889 -0.626969 -1.23784 -1.76805 1.78236 -3.1148
3867 1 Ar 9.50538 11.6346 0.0116791 -0.183613 0.0832493 -0.976563 11.8311 -8.33086 -3.16289
3907 1 Ar 10.6322 11.1725 0.210182 -0.537541 0.316762 -0.143992 -11.5608 -10.6013 -8.65834
269 1 Ar 11.1331 12.058 1.20154 0.206927 -0.75907 0.98581 0.0470551 -28.1498 13.1375
272 1 Ar 11.5809 11.2871 0.61393 0.105444 0.284274 1.01413 18.4561 9.1149 -0.733811
3866 1 Ar 11.3264 12.1072 16.6801 -0.636237 -0.23687 0.0645778 17.4449 -10.4737 -5.79576
270 1 Ar 12.2401 11.666 1.51428 -1.63561 -0.639115 0.679556 -1.69864 -0.382745 -10.6727
353 1 Ar 13.2798 11.6956 1.76854 0.192091 -0.18718 0.8946 -3.49962 -3.05287 -29.0419
3949 1 Ar 12.5859 11.8473 0.359878 0.715891 0.756076 -0.575122 -0.243993 9.09032 1.09617
273 1 Ar 13.0887 11.0488 0.921079 -0.401953 -1.52063 -0.660708 -65.3529 10.4656 0.265327
3916 1 Ar 13.6857 12.0339 0.770259 -0.494438 -1.00947 0.768365 -9.27852 1.32183 5.31878
315 1 Ar 14.0215 10.9443 1.06613 0.215693 -0.0641646 0.685 48.4654 -10.9912 0.851238
317 1 Ar 14.7313 11.694 1.16176 0.301431 0.45577 0.989793 16.2346 6.82951 23.9592
275 1 Ar 15.3618 10.9003 0.404853 -0.193495 0.255693 0.134804 -4.13114 8.38935 -2.7317
720 1 Ar 14.9869 10.5167 1.34506 -0.449588 -0.37422 -1.02506 -3.90677 -7.51044 -7.94625
319 1 Ar 16.7621 11.5867 1.00482 0.0965625 -1.46089 -0.169826 0.584511 -0.515919 4.21433
3884 1 Ar 15.8172 12.0585 0.602813 0.222984 -0.0933239 -2.05894 -17.7012 -2.10644 14.6482
284 1 Ar 0.792892 12.3018 1.42953 1.38153 1.14255 0.32514 -11.1171 4.29255 -3.75151
328 1 Ar 0.761016 13.004 0.525567 1.14011 0.608943 0.486562 -6.15567 -15.9864 -4.38193
365 1 Ar 1.01443 13.949 0.70409 0.753368 1.9879 0.0899543 11.1366 14.6661 1.56837
285 1 Ar 2.5913 12.4882 0.187439 -1.53323 0.0928994 -0.624364 -11.2201 7.38106 4.31796
725 1 Ar 1.57066 12.1998 0.702714 -0.129313 -1.01533 -0.313979 0.796987 14.1378 -10.5627
766 1 Ar 1.7149 13.0406 16.6046 0.59061 0.537799 -0.225876 -2.46231 -3.61635 4.14926
732 1 Ar 2.67453 13.5638 0.405287 -1.33275 -0.3145 1.13547 -19.6113 17.8889 22.3828
1171 1 Ar 1.87407 13.1823 1.01109 0.494993 -0.837131 -0.902694 -14.0866 12.0262 -1.00796
692 1 Ar 2.78432 12.7044 1.19373 -1.52703 0.103892 0.758144 22.3156 -15.5118 -9.259
693 1 Ar 5.63941 12.4952 0.729666 0.711105 -0.987583 0.262917 -6.24521 -0.185008 -10.515
729 1 Ar 4.77045 13.1552 0.594993 -0.862177 0.500564 -0.69288 1.0705 26.8561 -17.785
694 1 Ar 6.35688 13.6161 0.649076 1.13045 0.0523642 0.935646 13.4983 -18.9415 -18.8422
295 1 Ar 6.57866 12.1241 0.479443 -0.584257 1.01274 -0.804822 16.4753 29.9688 -13.2454
302 1 Ar 7.42575 12.946 0.717423 -0.166381 -0.546063 -0.121752 -2.86963 -3.56546 10.6376
700 1 Ar 6.60042 12.6637 1.39605 0.330731 0.416089 0.191854 -8.07307 24.5645 -20.436
3864 1 Ar 8.77336 12.2819 0.359509 0.715915 -0.283045 -0.513352 -6.54892 8.44545 -5.85502
266 1 Ar 8.40696 13.4051 0.559136 -0.271757 -0.582715 0.437539 12.8506 -3.71441 -4.86319
3903 1 Ar 8.38308 12.5024 1.32047 0.268117 0.47989 0.624393 27.3162 -5.089 -33.2979
666 1 Ar 10.4714 12.1589 0.449528 0.226703 -1.02263 -0.316479 -33.0947 10.2349 -4.72806
707 1 Ar 9.43152 12.7018 1.18302 -0.0267911 0.447963 0.0767343 -1.72271 -4.13355 -1.78774
309 1 Ar 10.6121 12.8607 1.72933 -0.139413 0.923252 0.630332 0.936401 2.33533 1.1907
308 1 Ar 10.2006 13.4083 0.876995 -0.799255 0.754895 -0.0221521 19.2168 20.7922 29.9132
3912 1 Ar 12.0788 12.8734 0.151199 1.33724 1.71588 -0.493795 14.24 -5.11119 1.54083
312 1 Ar 11.7484 12.7429 1.55323 -1.82536 -0.159594 -0.706148 23.987 36.0792 1.96436
3947 1 Ar 11.1806 12.927 0.643733 -0.130305 -1.2672 1.51868 -9.50255 16.0899 5.43275
3951 1 Ar 11.8536 13.7858 0.751254 0.462743 -0.24615 -0.24991 15.4772 5.67256 -34.59
310 1 Ar 12.8412 12.6204 1.30361 -0.871612 0.355085 0.60149 1.46362 -20.9828 12.6964
356 1 Ar 12.844 13.4692 0.779199 0.521471 -1.09919 2.1577 9.9907 19.4021 -13.9926
360 1 Ar 14.0054 12.6338 1.67821 0.11856 1.90831 0.149431 -6.28096 -3.86489 -19.207
3920 1 Ar 14.8562 12.5969 0.496698 -0.478769 -1.17674 1.85505 -4.28241 4.5827 5.64408
354 1 Ar 13.8383 13.1187 0.568569 0.160311 -0.339534 -1.45435 7.24189 -0.897879 -0.751604
357 1 Ar 15.542 13.5558 0.968465 -0.367683 -0.317299 -1.93907 17.7449 -4.77098 10.259
322 1 Ar 16.4681 12.7078 0.106291 0.954803 -1.03962 0.715077 11.8011 16.0361 -4.51625
321 1 Ar 16.5644 12.906 1.15755 1.61297 1.04941 -0.131557 3.2116 -30.6652 -5.37633
765 1 Ar 0.338022 14.7772 0.764988 -1.48881 0.61893 -0.294436 -11.8494 8.41179 3.37675
368 1 Ar 1.20429 14.9387 0.27289 0.359962 0.462988 0.0518999 16.8941 -2.64555 -8.31903
768 1 Ar 1.11537 14.6669 1.50457 1.25424 -1.50576 0.766592 5.07534 2.97877 -2.69936
367 1 Ar 2.03059 14.4286 0.827694 -1.18391 0.0136801 -0.162187 3.05497 -0.969037 4.46277
371 1 Ar 3.04048 14.9966 0.742047 0.104593 0.617213 0.222842 -3.66973 -6.69728 -30.3472
690 1 Ar 3.66631 14.1027 0.976654 1.12374 -0.871411 0.0301594 -5.40606 11.7831 -9.54286
336 1 Ar 3.95074 14.9098 16.69 -0.61269 0.158076 0.579478 -13.6726 33.342 10.3186
733 1 Ar 5.33034 14.0433 0.429713 1.70689 0.482967 -0.98221 18.1481 -13.0522 -5.78054
736 1 Ar 4.92126 14.796 0.983171 0.848921 -0.946151 0.590601 5.98427 12.604 0.805649
740 1 Ar 6.08569 14.8436 0.496935 2.39667 0.30706 1.67487 3.90386 -60.1689 -50.7239
335 1 Ar 4.59779 14.177 16.5386 1.71256 -0.869783 -0.868538 0.562565 -5.54292 -1.94059
339 1 Ar 7.19819 14.2028 1.10631 -0.721699 0.229082 -1.04008 -5.29266 -5.47618 -21.489
338 1 Ar 7.64128 15.4987 1.07338 1.34281 0.326996 -0.0354796 -22.4251 -15.58 14.8819
343 1 Ar 9.03333 14.2618 1.08124 1.01744 -0.769521 -0.77878 8.88528 -4.83188 -4.74643
3944 1 Ar 8.09133 14.6073 0.566183 1.01922 -0.0495133 1.77175 3.90736 -7.40373 -3.99714
3943 1 Ar 8.83257 15.129 16.753 -0.17366 -1.26128 -0.611465 -3.06362 -0.632951 20.2846
305 1 Ar 9.39644 13.916 0.0483321 0.514326 0.327753 -0.055826 -16.4948 10.3435 14.2762
345 1 Ar 10.1645 14.478 1.01784 -1.33946 0.817899 0.293748 -5.88084 2.42894 -14.9846
385 1 Ar 10.8413 14.0327 0.259081 0.660863 0.00330757 0.157755 12.6671 5.75087 2.50428
307 1 Ar 11.0466 13.8398 1.29738 1.45331 -1.41326 0.241089 -18.6416 7.27814 34.9824
348 1 Ar 11.6143 14.9754 0.792251 0.27405 -0.130132 -1.73564 8.58888 -4.2323 -0.43362
393 1 Ar 13.7067 14.3087 0.406569 -0.267301 -0.902228 -0.909402 -8.21007 5.97866 -8.07132
350 1 Ar 12.6665 14.5662 0.926777 -0.126054 -0.468875 0.497992 -0.405991 -14.1079 3.38805
391 1 Ar 13.848 13.8555 1.33673 -0.317246 0.0531202 0.658906 10.1521 5.27159 -7.10329
4000 1 Ar 14.7382 13.7513 0.383163 0.147889 -0.19666 0.136358 -11.0527 -16.9894 12.3784
39 1 Ar 14.5098 14.661 0.973457 -1.39653 0.549204 1.65581 -35.4929 10.5427 26.108
758 1 Ar 16.6644 13.8275 0.664806 0.00983136 1.99744 -0.449305 -1.95863 -1.1224 -9.0333
400 1 Ar 15.3332 14.6422 0.477044 0.547724 -0.0274551 -1.11415 38.3219 -1.43688 -15.0787
7 1 Ar 1.26902 16.4721 0.630456 0.27749 -0.0517788 0.654421 -2.78592 -5.72222 -11.8951
3 1 Ar 0.228733 15.8601 0.667954 0.738653 0.51962 -0.182894 11.6626 -6.47709 -7.02245
761 1 Ar 0.543135 16.6048 1.41645 0.262484 0.932261 -0.931724 0.190082 -10.9682 12.3236
405 1 Ar 1.47805 15.6753 1.31934 -1.27011 1.77386 0.543977 -16.204 5.00218 25.8067
762 1 Ar 2.0562 15.5332 0.537611 0.0479358 0.404214 -0.590878 16.3013 -2.45656 -3.46312
409 1 Ar 2.52176 16.4256 0.797035 0.621476 1.71179 0.109359 16.5269 -6.57256 -19.3976
770 1 Ar 2.56907 15.7147 1.50784 -0.712836 1.02878 0.354966 -9.47153 -16.8798 7.32324
11 1 Ar 3.45276 16.1098 1.16497 -0.708483 0.332415 0.523261 3.55414 9.10585 3.35857
370 1 Ar 3.25658 15.7669 0.143802 -1.03819 0.732614 -0.653049 0.526936 15.1867 -9.82167
773 1 Ar 4.41108 15.8111 1.00852 0.511124 -0.579645 0.39706 7.79719 -1.36996 -2.09848
373 1 Ar 5.06957 15.2664 16.7405 -0.441698 0.153365 0.00312926 -11.44 -19.3595 -3.16613
734 1 Ar 6.0935 15.5309 1.1266 0.284983 0.41289 0.192792 5.06563 54.0648 58.161
3575 1 Ar 5.32464 16.0212 0.573688 0.650488 -0.131444 -0.415053 12.1861 18.8728 1.27288
334 1 Ar 6.77021 15.8212 0.192217 -1.65779 0.74498 0.145611 11.4242 3.44312 8.71383
380 1 Ar 7.2868 16.5605 0.76103 0.305648 0.232972 -0.355434 0.203573 -3.06267 7.70609
3979 1 Ar 8.17825 16.0822 0.481125 -0.55541 1.29984 1.34737 31.1165 23.1296 0.257445
19 1 Ar 9.2232 16.565 0.584859 0.0592714 0.0882591 -0.209571 -10.9634 -4.29131 -7.64445
779 1 Ar 9.44158 15.3909 0.922124 0.946307 0.325147 -0.811359 3.88402 -9.08754 -10.9565
381 1 Ar 10.2145 16.3454 0.993065 -0.666834 -0.490456 -0.411332 -0.295279 -6.56931 -3.03229