ITEM: TIMESTEP
3200
ITEM: NUMBER OF ATOMS
4000
ITEM: BOX BOUNDS pp pp pp
0.0000000000000000e+00 1.6795961913825074e+01
0.0000000000000000e+00 1.6795961913825074e+01
0.0000000000000000e+00 1.6795961913825074e+01
ITEM: ATOMS id type element x y z vx vy vz fx fy fz
47 1 Ar 1.31225 1.37287 1.29288 0.674656 -0.359201 1.21173 7.02026 -5.97906 -10.9882
401 1 Ar 0.382263 0.940446 1.08237 -0.566862 -0.00304334 1.07888 -5.4561 8.56612 -6.62162
412 1 Ar 1.98727 0.328091 1.17286 -0.126937 0.465107 0.0424778 -18.0795 30.7383 16.2398
49 1 Ar 2.47132 0.484522 16.6315 -0.0708277 -0.524948 0.469195 -5.72533 -27.1158 -10.128
449 1 Ar 2.42095 1.65694 1.23232 0.0560433 1.07915 0.0420042 -0.165416 -16.117 -1.82281
3649 1 Ar 2.98442 1.49152 16.4541 0.511698 0.30679 -0.70613 14.9057 0.68528 8.19621
3652 1 Ar 2.91092 0.887464 0.599414 -1.04047 1.25269 0.827845 16.1617 22.6213 37.5091
413 1 Ar 4.0249 0.510358 0.956348 0.956621 0.82755 -0.229245 -7.55286 8.20929 -5.6729
93 1 Ar 4.07145 1.07108 16.5739 -0.929322 -1.88862 0.703166 -7.22324 2.81456 32.3281
15 1 Ar 4.47155 1.60547 0.871591 1.17993 0.5471 -0.904909 -0.893738 -3.22884 0.686115
457 1 Ar 5.49117 1.26749 0.920568 0.698437 0.424206 -0.461562 -12.1943 6.28547 -0.240808
374 1 Ar 4.75035 16.6773 1.47041 -2.17601 0.230526 0.580928 -3.39718 18.6872 -4.01049
17 1 Ar 4.6059 16.7545 0.283168 0.061458 -1.26573 -0.35566 1.39553 -2.59179 0.876413
417 1 Ar 7.4566 0.605782 0.915416 0.489988 -0.561249 1.24302 18.3288 12.5569 -25.4564
459 1 Ar 6.16389 1.22946 0.039164 -0.656655 -0.666552 -0.492758 8.89255 23.2135 -5.51749
375 1 Ar 6.25222 0.579281 0.8668 -0.114728 -0.905754 -0.351939 4.9169 13.9268 8.85297
18 1 Ar 8.84789 0.331188 1.27285 0.623806 -0.705499 -2.00305 -2.33335 -19.0888 -14.5735
458 1 Ar 8.24358 1.87763 0.134526 -0.337577 -0.904454 -0.326834 2.36618 -1.84003 0.642167
379 1 Ar 8.23524 0.75466 0.121268 -1.84148 1.23011 1.10427 -3.59874 -5.0224 -0.421465
24 1 Ar 8.89516 1.35032 1.08988 -2.30604 -0.949721 -0.52331 -3.3455 16.0506 -4.34622
25 1 Ar 10.5064 1.53588 0.804836 -0.283957 0.233092 0.10809 13.8168 14.8725 -8.05226
65 1 Ar 9.81853 0.821787 0.923891 0.0312835 -1.03307 0.51455 -4.66658 -24.0569 2.56458
27 1 Ar 11.6803 1.4649 1.01111 -0.39946 0.153509 -0.176903 1.45145 -3.7734 2.25013
386 1 Ar 12.0374 0.28981 1.35823 0.329139 -0.999288 0.685946 -1.43613 -7.78316 -3.24483
31 1 Ar 11.7995 0.756998 0.233113 0.501091 1.09865 -0.525715 22.5708 2.54691 6.87116
3627 1 Ar 10.8006 0.637903 0.0878585 -0.261163 -1.09057 -0.0992362 -24.5018 1.92726 -5.6758
33 1 Ar 12.9184 0.50636 0.42117 -0.0976156 -0.427398 -0.580884 -6.71879 -8.20021 10.3212
429 1 Ar 12.7206 1.01024 1.38631 0.090594 -0.253639 -0.0362747 -2.09296 34.6013 -33.7387
433 1 Ar 13.3809 0.195563 1.45971 0.971034 -0.682787 -0.718001 -12.7279 -10.6421 0.684625
3631 1 Ar 13.4659 1.37854 0.270308 0.36417 0.77791 1.12608 -1.66318 14.8842 12.4484
34 1 Ar 14.198 0.268415 0.794943 -0.765196 0.360247 0.355146 27.6838 3.49012 29.4708
477 1 Ar 14.6744 1.45107 0.405468 -1.38447 0.44141 -1.69328 -3.48456 -4.82638 -9.57159
473 1 Ar 13.8442 1.16663 1.23324 -0.763102 0.611405 0.0761026 1.34076 -6.93156 11.9054
79 1 Ar 15.3177 0.0464733 0.421787 1.72939 0.396432 0.668277 -5.35257 4.93247 3.87165
43 1 Ar 15.8196 1.14512 0.0692145 -0.489077 1.1682 -1.09569 -5.58502 15.5515 7.03215
441 1 Ar 16.1751 1.56683 1.31952 -0.300709 -0.512775 -0.260904 5.53921 -34.6823 10.068
798 1 Ar 16.3582 0.330148 1.33668 0.0265948 1.00376 -2.39877 -11.7223 -3.0549 4.93099
83 1 Ar 16.757 1.87047 0.316322 -0.268965 0.914919 -0.314111 -1.30651 -6.83263 5.82517
402 1 Ar 0.334924 1.97793 1.48428 -1.31834 0.725361 -0.775314 44.6093 0.838326 -43.5288
442 1 Ar 1.83684 2.50391 1.19793 -0.666203 0.133498 -0.53236 -16.2747 -6.63892 -1.38913
481 1 Ar 0.963058 2.12043 0.644145 -0.906979 0.943488 -0.650392 2.96904 6.01573 -13.2611
446 1 Ar 2.77021 2.36787 0.328982 -0.345251 0.1531 0.562901 -12.4695 -5.26956 -17.8287
3643 1 Ar 2.01406 1.45173 0.194129 -0.56183 0.774595 -0.197381 2.32122 3.10193 15.5222
12 1 Ar 3.43561 1.78342 0.940785 1.55672 1.28516 -0.264943 -2.83726 -1.23143 -7.89524
453 1 Ar 4.15689 2.75612 0.821329 -0.274763 -0.206 -0.879252 -1.30212 -16.6098 3.08195
53 1 Ar 5.2817 2.32128 1.26812 0.060943 -0.54883 1.66144 -13.0972 -1.42034 22.5741
490 1 Ar 5.73712 2.98591 0.206568 1.78733 0.0925922 -0.120041 6.91416 22.4981 -1.76159
456 1 Ar 5.14468 2.17555 0.265263 -2.10408 -0.561318 -1.23114 5.59171 -7.59583 13.1307
60 1 Ar 7.2381 1.997 0.740886 -1.82304 0.153162 -0.484423 17.5956 6.02782 0.626579
95 1 Ar 6.22214 2.04422 0.862598 -0.308545 -1.97495 -0.00978121 -10.0541 4.42691 -7.3386
94 1 Ar 7.78865 2.97952 0.187357 0.817276 0.500476 -0.112759 9.12824 -2.62989 22.6419
58 1 Ar 8.28397 2.38057 1.11075 -0.591299 0.310629 -0.237514 15.8818 -11.3154 -1.25006
461 1 Ar 10.0472 2.57604 1.50588 0.948423 1.33 0.795873 -13.643 -22.3347 -16.8183
68 1 Ar 9.39684 1.98907 0.362425 -0.0240363 -0.916566 -0.0403693 -3.55376 34.1067 10.4931
107 1 Ar 10.3055 2.43898 0.159853 0.735678 1.13156 0.379708 8.07303 -24.6496 -19.043
69 1 Ar 11.2105 1.68857 16.7453 -0.55798 -0.651822 0.173702 -12.4176 2.92324 12.399
106 1 Ar 11.4185 2.65829 16.3769 -1.16128 0.281264 0.899251 -11.0291 5.80534 16.5281
67 1 Ar 11.3653 2.48483 0.866531 -0.149906 -1.90708 1.17837 3.33824 4.30463 -7.86127
32 1 Ar 12.2737 1.89932 16.7863 -0.32245 0.80022 0.097094 -13.4935 23.9992 8.76646
73 1 Ar 12.7685 2.01099 0.892723 -0.00943181 1.55423 -0.81447 4.54293 -10.6121 13.7845
110 1 Ar 12.3865 2.88848 0.505249 -0.103854 0.695869 0.88417 -18.518 -1.24757 -33.703
36 1 Ar 13.8499 2.17386 1.01673 0.0572675 -0.82643 -0.783118 2.63363 6.90318 0.0547981
3714 1 Ar 14.5001 2.51712 0.260959 0.402325 0.768346 -0.273852 -0.308255 15.9223 7.42938
74 1 Ar 14.7147 2.83736 1.4419 0.305979 -0.058158 1.57611 3.78901 8.13623 -11.121
44 1 Ar 15.7322 2.24487 0.77427 0.638733 -0.581994 -0.811446 -21.0688 14.2005 -13.8252
117 1 Ar 16.6738 2.79208 0.887209 -0.829585 0.555199 -0.554195 10.31 7.55108 15.2088
3683 1 Ar 16.2165 2.77519 16.7745 -0.620103 0.81 -1.34358 -11.4024 0.0779233 -21.3286
525 1 Ar 1.13894 3.1987 0.472629 0.727895 0.183115 -1.00822 -7.46596 10.4499 7.88034
120 1 Ar 0.0599125 3.89047 1.22662 -1.22402 -0.158638 -0.503374 17.5859 -8.97736 6.70695
3724 1 Ar 0.510964 4.46441 0.35173 -0.770601 -0.440733 0.0686358 -0.210859 -12.9889 8.31614
84 1 Ar 0.202767 3.4478 16.5955 -0.389217 1.49024 -0.181771 8.16829 12.462 -1.40222
521 1 Ar 1.2311 4.50757 1.2909 0.329755 -0.641022 -1.86161 -24.7982 -27.6665 -17.8736
48 1 Ar 1.71525 2.6532 16.6102 -1.19076 -0.12345 -0.405356 8.10944 -11.4305 -1.34633
485 1 Ar 2.16544 3.47406 1.21922 0.306963 1.93883 -0.592692 -14.7957 4.79302 -11.7414
50 1 Ar 3.02813 3.64077 0.739391 -1.25541 -0.277158 -0.445459 -10.9927 17.8827 -29.6019
123 1 Ar 2.03853 4.27441 0.476163 -0.661657 0.235322 1.02079 -0.956856 2.1773 -2.08961
90 1 Ar 4.32211 4.05592 0.608991 -0.223621 0.948474 -0.300396 -27.4937 25.6704 -32.8911
529 1 Ar 4.87594 3.45095 1.10969 -0.00774894 -0.522788 1.09471 21.1736 -22.2619 5.02745
131 1 Ar 5.16516 4.53624 1.50922 -1.03089 -1.19984 1.25303 27.9663 -0.675328 -11.7774
136 1 Ar 6.09131 4.00897 0.509173 1.01118 0.442279 -1.04073 -4.07825 -3.24745 8.98115
894 1 Ar 5.8742 3.17962 1.26002 -0.764957 0.166405 -0.317091 16.3188 3.50067 7.39321
494 1 Ar 7.35993 4.1297 0.591969 0.733882 -0.863844 0.781889 0.554107 -3.65134 -3.67831
500 1 Ar 6.82494 3.14525 0.607096 0.291391 0.144342 -0.802691 -32.4958 -3.05684 -2.53705
533 1 Ar 6.59853 4.9426 0.24968 -0.552436 1.08788 -0.157973 -2.92144 11.3748 -41.3232
537 1 Ar 7.69348 4.21369 1.66498 1.99529 1.24116 0.380014 4.67256 -0.0215699 -3.81229
898 1 Ar 7.58994 3.10498 1.23476 -0.577116 -0.528904 -0.178533 7.62938 14.5329 27.9721
144 1 Ar 8.41007 3.77813 0.888216 0.829583 -0.318098 1.34964 -2.83006 -7.22781 2.8721
101 1 Ar 9.20026 3.02606 0.883938 0.312621 0.728151 0.270064 -8.13826 -26.5126 3.58673
103 1 Ar 10.5551 3.20376 0.712059 2.64588 -0.208061 -1.02713 -1.65554 17.0291 28.2922
102 1 Ar 9.65934 3.90766 0.944753 -0.832647 -0.695383 0.30008 7.91461 -2.05354 8.71074
72 1 Ar 11.6966 3.67138 16.3257 -0.107036 1.59351 -1.07506 9.52011 8.94887 -27.14
112 1 Ar 11.8285 4.36981 1.2191 0.282504 0.217098 0.777528 -0.233947 -0.955608 15.1092
113 1 Ar 12.4861 3.98276 0.534857 -0.553875 1.06007 -0.355101 23.388 2.1515 -13.7389
513 1 Ar 13.2216 3.02277 1.0404 2.30606 0.143837 0.961249 9.37487 5.33825 3.80518
155 1 Ar 13.508 4.29233 0.821154 1.67351 -0.793542 0.0572352 13.4548 2.67194 -22.1967
3716 1 Ar 13.5395 3.43349 0.0231993 -0.66293 -0.737543 1.00648 -6.94227 -1.20464 1.40034
115 1 Ar 14.3791 3.74897 0.599531 -0.637471 1.28644 1.76161 5.09851 -3.85888 3.66424
114 1 Ar 15.3127 3.18165 0.523377 0.982175 1.13279 1.08823 -0.700523 6.94305 -3.10258
593 1 Ar 15.2816 4.33646 0.595937 1.09239 0.024023 -0.979002 9.22641 -2.4804 -1.43564
200 1 Ar 15.7859 3.74884 1.4496 -0.658154 -1.26999 -0.568856 -11.7471 -8.92427 -0.412939
124 1 Ar 16.115 4.97513 0.86315 0.567994 0.348872 0.652073 -11.8731 -12.3763 1.30365
81 1 Ar 16.1918 3.8114 0.455609 -0.37171 0.856136 -0.730814 3.45703 -3.0329 -9.86052
163 1 Ar 1.26411 5.43169 0.755018 1.9904 -0.99247 0.0189566 1.13136 -5.49209 1.22605
157 1 Ar 0.192464 4.9327 1.37978 -0.358555 -0.780033 0.657618 23.8277 12.1088 4.87463
561 1 Ar 0.255614 5.44329 0.093088 1.4144 0.152879 0.662703 -0.435667 15.364 -0.345242
565 1 Ar 2.10859 4.96131 1.38296 -0.799665 1.05334 0.0602239 20.3724 10.1316 3.87115
128 1 Ar 2.22418 5.95907 0.998792 -2.23353 0.571546 -0.868519 -6.38227 -1.76238 -6.4117
165 1 Ar 3.07861 4.78281 0.802111 -0.137057 -0.325172 0.352636 3.51593 10.882 20.7585
491 1 Ar 3.67667 5.81298 0.731685 0.588396 0.0516028 0.168955 3.76872 -1.35552 11.9878
133 1 Ar 4.61593 5.49226 1.17467 -0.414596 0.361709 0.791953 -5.74934 -5.95666 -18.3352
573 1 Ar 6.63712 4.6738 1.17386 0.159941 1.15488 0.317806 -6.14341 -11.4069 49.5465
96 1 Ar 5.25861 4.82985 0.524191 -0.243408 -2.15134 2.32933 7.58521 -9.32818 14.5891
534 1 Ar 7.42625 5.34921 1.32843 -0.32437 0.700674 1.50138 7.85876 -1.1597 -13.0138
139 1 Ar 6.8546 6.13887 1.7534 0.969188 -0.39498 0.0422364 -11.582 -0.857472 -20.8676
3735 1 Ar 5.95577 5.54975 1.0201 -2.51447 -0.0201057 1.76485 5.32581 -13.6605 31.6459
539 1 Ar 8.48701 5.61485 0.751614 1.01685 0.0597654 0.832042 2.17792 14.1709 8.89852
541 1 Ar 9.01917 4.73554 0.935173 -0.149935 -1.52026 -2.0983 -0.135025 0.269514 1.33576
145 1 Ar 10.1452 4.73589 0.632461 0.410518 -0.450684 -0.457601 9.46267 17.3075 3.4226
546 1 Ar 10.65 5.87534 1.08579 -0.666289 -0.885797 -1.0046 1.34364 -3.89 -4.56632
147 1 Ar 11.4697 5.03259 0.46142 0.780967 -0.412429 -0.62059 0.837788 2.77148 1.85957
151 1 Ar 11.8377 5.7649 1.28655 1.73819 -0.154085 0.267146 -5.33223 -3.82808 8.80715
189 1 Ar 10.9656 5.77748 16.6459 -1.49163 1.01152 0.308507 5.32836 8.01271 -1.6687
153 1 Ar 12.3365 4.96827 16.4737 0.259265 -0.322375 -0.467292 1.27782 -5.42981 4.34262
591 1 Ar 12.6868 5.15374 1.14704 0.0587763 -1.13938 -0.957503 -7.44844 -5.63966 24.89
550 1 Ar 13.2361 5.14068 0.32308 1.813 -1.11106 -0.851667 24.6406 2.75072 -25.0984
159 1 Ar 14.4773 4.8502 0.193905 1.28666 1.40971 -1.15251 -24.2287 -0.643484 9.18952
599 1 Ar 15.1691 5.62266 1.01271 -0.76652 1.85053 -0.153343 -2.07768 -1.29893 -4.71466
596 1 Ar 14.0809 5.39331 1.08282 0.177308 -0.58448 -1.49179 -10.0607 -10.7187 -27.4983
121 1 Ar 15.3603 5.165 16.6151 0.443562 -0.35518 0.200231 14.245 1.03693 -4.33841
160 1 Ar 16.0681 5.9179 0.470986 -0.268746 1.19409 0.493372 1.21659 6.89348 13.4977
605 1 Ar 1.41336 6.94637 0.771478 -1.04245 -0.394249 -0.830313 -9.30121 -29.4196 21.2069
158 1 Ar 0.426399 5.96093 1.02847 0.242247 0.42432 0.253959 -17.3774 10.9172 3.4227
602 1 Ar 0.388387 7.78713 1.0521 -1.62607 -0.331269 -0.638855 -12.6253 -21.8192 -13.008
205 1 Ar 0.447929 6.81277 0.185042 -0.534423 0.0603366 0.208936 -10.0243 8.3322 8.55499
522 1 Ar 2.48029 6.84221 0.407267 0.68465 -0.0528547 -0.738737 0.84775 1.43231 -8.6469
608 1 Ar 1.4582 7.67803 0.127765 -0.252671 -0.0863634 -0.551463 0.876975 29.6702 -22.4379
173 1 Ar 3.99799 7.15392 1.312 1.68416 -0.500467 -0.647194 12.6391 -12.6388 -17.3142
167 1 Ar 3.51172 7.9158 0.404084 0.685322 0.581394 1.24572 -13.8704 -26.7335 18.3798
132 1 Ar 3.54826 6.70878 0.162698 0.828319 0.599226 0.398198 -18.8647 15.052 11.7709
130 1 Ar 4.51068 6.45434 0.611306 0.963793 1.38465 -0.226933 4.75493 6.06186 -3.5067
3736 1 Ar 4.9511 6.44531 1.55596 -0.608811 -0.874381 0.212641 -6.09443 4.25101 2.93491
174 1 Ar 4.94905 7.54285 0.987411 0.430862 0.690264 -1.59962 6.88528 -0.567179 3.33251
3734 1 Ar 5.38876 5.87629 0.274858 -0.198655 -1.54009 0.203461 -19.313 11.9309 -18.8181
177 1 Ar 6.13523 6.7467 0.89429 -0.299001 0.823732 -1.90863 -10.7544 14.8949 9.20707
179 1 Ar 6.81092 7.33057 0.0452296 0.506436 -0.294945 1.51409 -3.35337 -16.6586 1.40665
180 1 Ar 7.60708 6.38953 0.936461 -1.58091 0.435276 0.295406 3.62025 -1.1444 0.67944
183 1 Ar 8.83266 6.66986 0.844429 0.602462 -1.5847 -1.82279 5.25402 -5.85253 2.64111
219 1 Ar 8.06387 7.36521 0.723249 -0.125608 -0.85348 -0.65215 -1.30658 0.306012 4.81396
148 1 Ar 9.56504 5.93753 0.461569 0.183002 0.0941296 -1.01316 3.169 -1.1536 -2.52692
585 1 Ar 9.98979 6.79521 1.33731 0.310266 -0.10992 0.0099058 -8.69304 -13.843 18.7886
225 1 Ar 9.91924 7.78336 1.01422 -0.207261 0.339223 -0.0808273 -24.3272 -8.55032 -13.5728
181 1 Ar 10.5887 6.8024 0.518881 0.589078 0.205882 -2.10917 8.33089 2.64342 -18.6008
187 1 Ar 11.6511 6.46568 0.604623 0.0231693 -1.54374 -0.218783 -12.6016 -13.7675 -31.9202
586 1 Ar 10.9512 7.67815 1.12892 -1.16267 0.287993 0.95482 18.0391 -22.9933 1.80611
191 1 Ar 12.6486 5.93363 0.078528 -0.664662 -0.380402 -0.762541 -12.7954 20.0855 0.614048
590 1 Ar 13.4587 6.17836 0.767661 -0.0195371 -0.255202 -0.579232 11.3005 -34.4256 12.1938
190 1 Ar 12.4728 6.68913 1.3446 1.97518 0.388448 -0.288997 -10.2663 -10.0928 21.9845
3791 1 Ar 12.62 7.18015 16.5169 0.388367 -0.711624 -0.0343386 -7.18545 2.22205 0.274867
3760 1 Ar 14.2524 7.31163 0.674951 0.647482 0.302317 -0.112757 -1.40062 -5.38327 -0.538101
3793 1 Ar 14.4342 5.96472 0.272588 0.397952 -1.30857 -0.537555 -16.8943 3.39658 4.85206
164 1 Ar 15.2071 7.82435 1.02891 -1.44865 1.23125 -0.682627 1.92856 4.54289 -9.48923
199 1 Ar 15.3211 6.70698 0.851038 0.21717 1.42926 0.243575 -22.5883 -14.0009 0.996842
3799 1 Ar 16.1379 7.27159 0.783452 0.143754 -0.965309 2.04077 28.6363 6.62499 -3.8163
645 1 Ar 1.30357 8.25336 1.1841 0.165072 0.0518572 -0.0524459 19.885 11.7815 1.47532
638 1 Ar 0.18147 8.78569 1.31037 -0.99759 -0.212365 0.0486032 -4.09847 11.7584 20.3343
3808 1 Ar 0.682881 8.60504 0.444669 -0.938361 0.590347 -0.870713 -2.01552 2.59523 5.33569
609 1 Ar 2.63841 8.07942 0.95764 0.695445 -0.100945 -0.497434 -4.24451 12.4859 2.41743
207 1 Ar 2.60539 8.62563 16.722 1.03551 -0.505186 0.181515 5.18958 3.16168 6.0621
170 1 Ar 4.42651 7.42252 0.0706698 0.263918 -1.60541 -0.403675 0.957718 -14.3355 -12.0157
210 1 Ar 3.44062 8.95045 0.739434 -1.00559 0.169834 0.458024 -7.97367 -22.8482 -5.68323
3772 1 Ar 4.39367 8.40986 0.374078 0.286522 -0.272224 0.41899 15.0474 21.7403 3.52468
175 1 Ar 5.40131 8.48612 1.29617 -0.599204 0.373267 0.00711076 7.91094 -6.56609 -15.7665
3774 1 Ar 6.09052 7.94849 0.583514 -0.784339 -0.0182657 -1.57064 1.70588 -2.11418 10.5706
215 1 Ar 7.05187 8.62139 1.24983 1.83721 -0.317368 1.6019 -12.7857 8.53184 -4.5999
178 1 Ar 7.07033 7.4239 1.17596 0.759465 0.443074 -1.29186 -0.956211 3.59967 -9.82662
618 1 Ar 7.53063 8.07858 0.161307 -0.23883 1.16897 -0.704258 0.58495 8.85598 7.9044
184 1 Ar 8.86252 8.20824 0.993982 0.260618 0.598885 1.36256 4.76638 -0.519711 -3.93484
621 1 Ar 7.92398 8.12907 1.48281 0.646771 0.144488 0.287199 12.4157 -2.95162 -18.7363
582 1 Ar 10.5336 8.58377 1.18725 -0.120719 0.606088 0.207514 10.562 14.7097 4.84005
625 1 Ar 9.61802 9.01613 0.910871 -0.31893 -0.152875 0.79562 -22.6308 -13.4214 -0.280914
188 1 Ar 10.4934 7.8916 0.158179 -0.188534 -0.590254 -0.766478 0.87241 1.78723 -7.42587
192 1 Ar 11.992 7.38649 0.698833 -0.384465 0.439157 -0.227066 3.76121 30.8799 2.54268
3836 1 Ar 11.4995 8.44341 0.608211 0.171093 0.462356 0.193838 5.10435 -20.2165 -21.8999
3796 1 Ar 12.6497 8.18661 0.36632 0.169454 0.388792 -0.343642 -3.17064 -10.6874 9.14766
195 1 Ar 13.4962 9.01562 0.616953 1.15788 -0.0314071 -0.772361 -16.7273 -13.724 -17.393
230 1 Ar 12.4054 9.06883 0.944708 0.581341 0.367216 -1.62658 3.49591 -19.4895 -23.5677
3790 1 Ar 13.0945 7.06668 0.651187 0.387104 -0.0931929 -1.14434 -9.28102 57.0794 5.27417
3800 1 Ar 13.5667 7.83695 16.76 0.257245 0.544785 -0.281304 -0.153971 -0.115619 -2.39971
3795 1 Ar 14.4817 9.52049 0.86679 -1.03505 -1.02996 0.639463 11.7965 -7.82998 1.01733
197 1 Ar 14.3171 8.42966 0.752588 -0.205118 0.634564 -0.24789 12.4915 -10.9785 1.82819
237 1 Ar 14.4409 9.10268 16.6317 0.355618 -0.00424766 1.71186 -30.8571 -0.870257 -18.2156
634 1 Ar 15.3729 8.94899 1.22495 -0.433954 0.320996 0.0728567 -8.33145 -5.39323 26.384
198 1 Ar 14.6097 7.95904 16.5524 -0.77655 0.157599 -0.690834 -2.86943 7.04507 11.1781
201 1 Ar 16.2593 8.53063 0.620407 0.397661 -0.575733 1.44895 -2.41485 -15.1766 3.36661
236 1 Ar 16.1281 7.99482 1.54109 -1.21375 0.296353 1.26849 4.61981 11.4608 10.9103
3803 1 Ar 15.2434 8.73962 0.251277 1.27207 0.341949 0.640441 20.1612 -26.3729 -6.48419
204 1 Ar 0.386658 9.65776 0.193528 -0.360032 -0.808457 -1.62099 -8.76986 -9.95619 1.61355
243 1 Ar 1.01553 9.55419 1.20274 -0.425595 0.0850198 0.284404 -4.79655 -7.69591 5.97006
279 1 Ar 0.610104 10.5709 1.12623 0.0791635 0.435101 0.326403 3.9539 -0.530018 1.91444
242 1 Ar 1.32928 10.0833 0.355278 -0.855465 0.00539498 0.797509 -3.72669 3.86743 -22.1565
208 1 Ar 1.61277 9.10334 0.119742 0.396582 1.37802 -0.58861 1.24474 -9.48841 -0.953382
245 1 Ar 2.31855 10.7178 0.312635 -1.04929 0.165896 0.313241 0.452215 -3.95024 -11.6528
247 1 Ar 1.78937 10.4432 1.15355 0.408128 0.646099 0.242321 -15.4654 25.5993 3.41809
606 1 Ar 2.00673 9.09358 1.24587 0.00843641 -0.167239 0.371456 6.99775 1.43704 -1.29756
211 1 Ar 4.32299 9.09881 1.31063 -0.114458 -1.39809 1.23523 0.551771 -2.53344 16.2767
612 1 Ar 2.95827 9.83417 0.500881 -0.799178 0.0582251 -0.901604 -6.85186 5.08088 -2.83465
689 1 Ar 4.15856 10.3179 1.41829 1.0295 -1.79898 -0.0698659 6.12322 -20.4107 13.0635
213 1 Ar 4.24258 9.51866 0.391859 -0.581222 -0.724579 1.18468 -39.6842 -1.78516 -13.7813
653 1 Ar 5.21439 9.76056 1.41436 0.938668 -0.177662 0.861315 -3.85592 5.14445 11.995
3856 1 Ar 5.28331 10.7943 0.78001 -1.811 -0.119961 0.409056 7.44414 6.1569 3.36073
3815 1 Ar 6.19682 10.0762 0.175987 -0.771104 -0.0126173 0.146258 9.31839 -2.06429 0.841476
217 1 Ar 5.15606 9.82743 0.362772 -0.96691 -0.820504 0.724984 36.6803 8.00085 -8.9435
651 1 Ar 6.11479 9.29396 1.09797 0.601601 -0.126021 -1.29993 6.93944 4.51135 -19.6356
297 1 Ar 7.0318 9.95248 0.9558 0.159399 -0.17857 -0.884645 9.28527 -15.2703 -3.979
3820 1 Ar 6.74366 9.08071 0.22346 0.690072 -1.45145 -1.22527 2.88068 0.458261 2.48339
223 1 Ar 8.69673 9.79566 0.477012 0.138875 0.651197 -0.215837 15.0173 8.46891 5.80654
218 1 Ar 7.82792 9.29055 0.418575 -1.71187 1.11711 -0.054598 -30.3811 -2.725 5.15968
224 1 Ar 7.95896 9.26284 1.56303 -0.0526598 0.869105 -0.929403 14.8784 -3.89267 -4.78069
669 1 Ar 10.4857 9.3799 0.508355 0.909583 0.0166503 -0.204154 24.1065 4.45491 -9.99167
665 1 Ar 9.33992 10.697 0.325922 -0.150153 1.27389 0.2602 -5.29159 3.52219 2.88684
626 1 Ar 9.91606 9.96957 1.20134 -2.10816 -1.40805 -1.34794 3.24066 12.4096 -4.09838
628 1 Ar 9.13156 9.46857 1.81049 0.254348 1.05013 -0.866585 8.33464 15.4753 -5.36908
267 1 Ar 11.0082 10.3039 0.932633 -0.413441 -0.0538108 0.71525 -9.01395 4.80846 11.8943
672 1 Ar 11.3713 9.33456 1.03528 0.151286 -0.657531 -0.820345 3.32902 6.0548 44.4053
194 1 Ar 13.5666 9.94792 0.984676 0.406112 0.233076 0.405384 -11.8322 42.2406 -1.97137
3871 1 Ar 12.3758 10.1746 0.850001 0.519187 -0.255687 0.682612 1.60654 -3.64861 7.45486
233 1 Ar 14.496 10.1281 16.6872 -0.326509 -0.403956 -0.385691 3.41145 2.295 8.56032
234 1 Ar 15.4072 9.72129 0.369875 -0.866993 -0.410813 0.0864824 -9.96587 28.3634 8.89795
240 1 Ar 16.186 9.52702 0.98183 0.150578 0.695581 0.84439 25.1849 -9.92539 21.9401
717 1 Ar 16.3466 10.4762 1.52445 0.213342 0.430541 -1.3414 23.6603 -5.95902 -7.6775
282 1 Ar 0.570465 11.9982 0.173704 0.554912 2.31915 -0.232766 -5.02196 14.8554 -4.22678
212 1 Ar 3.083 10.7912 1.12157 0.0964841 -0.148957 0.556598 -2.82548 -2.04082 -23.9851
248 1 Ar 1.35266 11.3727 0.38101 -0.989128 0.747409 -0.129166 9.44816 -19.5432 4.17821
287 1 Ar 2.39208 11.691 0.704103 0.319071 0.602017 -1.10512 1.37868 -3.41575 7.59514
649 1 Ar 4.27283 10.9245 0.649385 1.11791 1.32493 -2.96378 -6.01029 21.8444 -14.0173
331 1 Ar 3.47255 11.7489 0.449672 -0.218283 1.85299 -2.04563 -30.3527 -14.1786 -0.434307
327 1 Ar 4.4321 12.6472 16.5017 0.44009 -0.719733 -1.28748 -10.4184 16.9745 -4.52389
250 1 Ar 5.81167 11.7059 1.17837 -0.143169 -0.213633 -0.29461 6.80042 -21.8272 0.410308
696 1 Ar 4.33596 12.1767 0.62259 1.25383 -1.97159 1.12181 21.5448 26.4396 -6.62667
264 1 Ar 6.85972 11.6292 1.44497 -0.152724 -0.926864 0.632085 -23.7348 -21.9172 10.4607
257 1 Ar 6.73743 11.03 0.361567 -0.288523 0.347646 0.265985 -4.70895 12.0683 30.2834
301 1 Ar 7.54378 11.898 0.781672 -0.154676 -0.380056 0.246764 20.1234 -15.7814 0.135147
662 1 Ar 8.84508 11.4492 1.02056 -0.580991 0.541356 1.87961 6.26359 -9.55264 -10.7388
259 1 Ar 7.85946 10.6436 0.901505 1.06812 -0.474261 -0.500334 12.0782 5.34302 14.4035
258 1 Ar 7.86394 11.2958 0.00774016 -0.874083 0.60064 0.797741 1.84573 -1.75583 26.3741
668 1 Ar 10.097 11.2426 0.88429 0.0167305 -0.00535974 0.199792 -2.61985 0.0226064 27.3633
3867 1 Ar 9.47077 11.7206 16.727 0.0254667 0.268284 -0.473223 -14.4506 10.5366 -1.91002
3907 1 Ar 10.2667 11.1039 16.6992 0.1539 -0.139964 0.839699 41.5158 -2.74724 18.1504
269 1 Ar 10.967 11.6018 1.82968 -0.199502 -1.38247 -0.617072 -15.2275 -1.2137 -1.31457
272 1 Ar 11.619 11.4607 0.807114 -0.498902 1.09818 0.775644 -7.3937 -7.97018 -19.3072
3866 1 Ar 11.5197 11.7496 16.5324 0.205141 0.145021 0.19649 -3.85483 1.80167 -1.73796
270 1 Ar 11.9917 11.6816 1.71128 0.219943 -0.235204 1.21116 25.8409 12.0639 15.0736
353 1 Ar 13.5521 11.6988 1.67405 1.05755 -0.780649 0.139807 21.0785 -7.61972 24.8422
3949 1 Ar 12.544 11.6671 16.7789 -0.0654499 0.182521 -0.0430672 10.6503 21.3237 19.8492
273 1 Ar 12.9754 11.2894 0.97126 -0.929136 -0.119174 -2.4119 -26.7291 -14.9818 -6.94941
3916 1 Ar 13.6869 12.0771 0.669052 -0.6727 1.03846 0.450361 -8.78369 3.9505 2.44943
315 1 Ar 14.0414 11.0308 0.916481 1.28779 -0.0878639 0.463235 6.81571 -0.747932 3.40076
317 1 Ar 14.8552 11.7739 1.36491 -1.07432 0.671788 0.578248 -5.76411 -3.34736 -2.99678
275 1 Ar 15.3041 11.0232 0.496703 -0.356711 0.0111286 -1.06539 -0.124982 -5.298 -10.9659
720 1 Ar 14.922 10.4629 1.27761 0.295015 0.35593 0.147016 -4.51846 -11.8031 3.34332
319 1 Ar 16.789 11.3463 0.727345 -1.18406 -0.681644 1.12732 18.3753 -4.92694 57.9672
3884 1 Ar 15.5654 12.0523 0.482152 1.5323 -1.53259 0.559293 -7.15825 1.03612 -3.46749
284 1 Ar 0.793876 12.5285 1.34327 0.36976 -0.974458 -0.95989 11.3092 -15.5695 5.66556
328 1 Ar 0.567005 13.1563 0.225376 0.897354 0.62049 1.07954 22.1913 -9.92563 0.823755
365 1 Ar 0.97702 14.0572 0.838778 1.43791 0.377824 1.06156 -5.79944 -4.95607 -17.7842
285 1 Ar 2.52768 12.5471 0.0146749 -2.30698 -0.0228539 0.723141 -2.09963 -6.2252 2.14289
725 1 Ar 1.57076 12.3725 0.652796 0.798022 1.59179 0.805633 0.108839 7.37852 -14.739
766 1 Ar 1.62057 13.0563 16.4444 -0.277651 0.230783 -2.01667 3.57309 1.39539 13.6971
732 1 Ar 2.73442 13.6919 0.536865 1.16005 -0.509971 0.898467 6.30636 -3.64481 3.87209
1171 1 Ar 1.88602 13.3365 1.08092 0.300435 -0.315723 -1.35124 -8.859 -5.1418 2.6355
692 1 Ar 2.92679 12.5411 1.07984 -0.438766 -0.691265 1.02749 -4.99591 15.8456 -2.63163
693 1 Ar 5.42533 12.4981 0.651718 -1.14652 -0.500996 -0.574549 -7.12593 8.18524 2.79124
729 1 Ar 4.6154 13.4145 0.523423 1.26121 -0.270365 -0.486272 5.85571 -6.36365 -4.17952
694 1 Ar 6.29969 13.2114 0.42894 0.446842 0.58132 -2.19899 -2.80575 29.6817 3.22905
295 1 Ar 6.63731 12.2867 0.393185 -0.302656 -0.17131 -0.932564 0.580624 -28.114 25.2292
302 1 Ar 7.62309 12.8388 0.480944 0.468915 -0.154912 -0.865733 7.4238 17.8389 1.41009
700 1 Ar 6.35809 12.6405 1.39356 0.372854 -0.766132 0.621332 -21.5608 -8.27499 -30.433
3864 1 Ar 8.47581 12.1212 0.149174 -0.503732 0.0106569 -1.50956 3.75153 0.106255 3.50589
266 1 Ar 8.72957 13.0762 0.472763 0.564791 -1.31256 -0.0862844 -5.95745 -6.49239 10.107
3903 1 Ar 8.45262 12.3242 1.40114 -0.802552 -1.02522 -0.870273 5.45207 17.3796 -25.4879
666 1 Ar 10.3816 12.2899 0.735025 0.423343 -0.681345 -1.27406 2.46372 -8.0998 -6.75379
707 1 Ar 9.47667 12.7647 1.14211 -0.10442 -0.430276 -0.251994 -2.68062 -15.4179 11.1788
309 1 Ar 10.4256 12.7065 1.73964 1.52272 0.209449 0.323695 -6.30908 -14.7568 -15.7383
308 1 Ar 10.2391 13.3348 0.747252 0.527112 0.69735 -0.0284971 6.13402 16.1236 -5.08196
3912 1 Ar 12.5072 12.9764 0.474273 0.484165 -0.531553 0.574107 -0.947778 -3.34608 -0.184753
312 1 Ar 11.874 12.897 1.56803 -0.794367 1.49845 1.36713 -24.1706 -14.7626 -33.8909
3947 1 Ar 11.2673 12.9747 0.588335 2.10683 0.559514 -0.466765 16.6485 -3.51607 18.3482
3951 1 Ar 11.8567 13.7944 1.01648 0.771027 0.571887 -0.65741 -11.2802 -8.71671 -11.7851
310 1 Ar 12.7829 12.2996 1.31555 -0.506133 1.02391 0.190429 -4.23818 4.91434 -13.7284
356 1 Ar 13.0757 13.6122 1.14273 -0.228164 0.681817 -0.29068 -16.434 1.56817 -7.19833
360 1 Ar 13.7509 12.7242 1.6253 0.173694 0.155573 0.712893 10.3696 -3.0563 -5.96568
3920 1 Ar 14.7405 12.8397 0.875576 -0.120114 0.214531 0.478007 5.27589 -11.2918 3.30648
354 1 Ar 13.8124 13.2169 0.563769 0.674802 -0.403546 0.972567 3.76943 -13.05 -14.3436
357 1 Ar 15.6472 13.4589 0.944688 0.236199 -0.726085 0.904786 20.8712 -24.5685 -2.67943
322 1 Ar 16.3851 12.6623 0.259315 0.874053 0.235244 -0.307774 4.75281 -1.60552 2.65371
321 1 Ar 0.117363 13.2345 1.09809 0.155221 0.159 -0.20998 -19.7193 13.0142 12.9624
765 1 Ar 0.233599 14.9817 0.67659 -1.2546 -0.373399 -0.744032 3.98106 0.961642 0.927945
368 1 Ar 1.43859 15.0775 0.408112 0.142547 -0.0615642 -0.710047 -49.064 -13.8986 -9.00979
768 1 Ar 1.04493 14.9022 1.46743 -0.85531 1.15432 0.514736 -1.53258 3.36089 -0.668374
367 1 Ar 2.05821 14.3904 0.986454 -0.587528 -0.567281 0.8833 3.50471 12.468 25.2713
371 1 Ar 2.9455 14.7403 0.410372 -0.0347116 -0.332737 -1.15652 11.4945 -4.34432 3.22707
690 1 Ar 3.85505 14.0716 0.858704 -0.42793 -1.30088 0.626057 -26.7496 7.06986 -9.089
336 1 Ar 4.11529 15.1157 0.376304 0.787024 -0.77345 1.73039 -24.1239 -10.779 -13.2853
733 1 Ar 5.58096 14.0146 0.33662 0.941136 -1.01251 1.77049 21.4288 -1.52972 -7.03406
736 1 Ar 5.27162 14.9745 1.08797 -0.382654 0.308998 -0.777143 5.7856 -5.88689 5.3419
740 1 Ar 6.48133 14.5081 0.725949 -1.5941 -0.299804 0.4278 -11.5554 7.41463 -33.0381
335 1 Ar 4.82474 14.4665 16.7097 0.0410843 -0.526099 -0.222869 -21.9858 2.85973 5.06332
339 1 Ar 7.26272 14.1538 1.2638 -0.264381 -0.401472 -0.819982 12.0006 -5.68097 8.50452
338 1 Ar 7.41876 15.217 1.13346 -0.954036 0.319454 0.395837 9.83625 12.6441 -5.59935
343 1 Ar 8.98778 13.6981 1.25193 -1.42154 -0.274417 1.30463 -8.71884 3.70302 -19.7466
3944 1 Ar 8.29963 14.0671 0.460649 -0.781561 1.15659 -1.05403 0.270309 2.64008 1.8378
3943 1 Ar 8.5435 15.067 0.087508 -0.368939 0.105153 0.522227 11.5094 8.99039 6.18494
305 1 Ar 9.3595 13.9281 0.0312047 0.224902 0.434158 -1.14234 2.65033 -3.57415 10.1301
345 1 Ar 9.89947 14.4031 0.883718 0.0329539 0.196711 -0.362553 10.1523 6.49274 -37.3677
385 1 Ar 11.0528 14.0682 0.357666 1.13441 -1.01628 -0.491576 -8.96438 -3.70975 -6.90935
307 1 Ar 10.9814 13.5157 1.62203 -0.172055 -0.616945 0.430735 25.7274 28.3085 -28.4034
348 1 Ar 11.627 14.9277 0.614074 -0.260028 -0.528375 -1.05313 -0.950531 10.6559 7.49275
393 1 Ar 13.8654 14.2718 0.404672 -0.309874 0.220704 -0.417879 -10.5551 -16.4429 11.6264
350 1 Ar 12.5547 14.4731 0.746581 -0.130752 0.360326 -0.866074 20.3547 -1.61482 -0.310811
391 1 Ar 14.2045 13.744 1.43409 0.306316 -1.18346 1.07713 5.74588 -3.67563 -16.0639
4000 1 Ar 14.854 13.8469 0.510351 1.04946 0.401996 -0.10063 -22.1822 9.04005 -14.5772
39 1 Ar 14.4329 14.8084 1.52821 -2.05101 -0.82913 -0.324373 4.92495 3.52271 6.51908
758 1 Ar 16.5897 13.9716 0.310102 -0.666899 0.758251 -0.883163 1.54242 17.08 42.7495
400 1 Ar 15.0156 14.8977 0.615715 -0.15411 1.50148 0.164139 -25.637 -27.9772 13.0383
7 1 Ar 1.64202 16.4952 0.357944 0.186596 1.0882 0.435565 0.331919 10.7867 -15.9364
3 1 Ar 0.510269 16.1094 0.951132 0.502575 -0.652329 0.405985 3.29372 -35.3175 -36.0243
761 1 Ar 0.574562 0.0307681 1.59065 -0.440383 0.535573 0.535829 7.13105 20.5101 29.5433
405 1 Ar 1.56961 16.1774 1.31685 -0.28354 0.400521 0.158482 -8.89143 -12.8501 17.8334
762 1 Ar 2.24093 15.5519 0.631145 1.23757 0.328395 -0.152202 30.102 22.1864 -6.99496
409 1 Ar 2.72208 16.6218 0.751516 1.13034 -0.355223 0.692308 -3.96694 -11.1739 1.48144
770 1 Ar 2.57957 15.7974 1.54046 0.530313 -0.893068 0.24865 9.84358 4.34851 19.7784
11 1 Ar 3.62967 16.3303 1.27369 0.857429 0.580044 0.490236 3.40779 0.0368073 7.75969
370 1 Ar 3.27168 15.8558 0.374968 -0.896893 -1.74257 -0.154173 8.07475 -17.2683 -13.189
773 1 Ar 4.56881 15.8244 0.966619 -2.03114 -1.5699 -0.161016 1.05449 19.9344 -4.66344
373 1 Ar 5.07219 15.4544 0.167546 0.191607 0.385985 0.257139 12.6524 10.7148 -23.4268
734 1 Ar 6.28473 15.443 1.29318 0.499077 0.113855 -1.09693 -2.03138 8.87391 -3.85434
3575 1 Ar 5.54964 16.326 0.639734 -0.228794 0.091024 -0.238445 -2.58938 -1.30667 -16.3975
334 1 Ar 6.91799 15.5444 0.205222 0.995987 -0.448103 0.232055 -43.4294 52.6591 3.99727
380 1 Ar 6.55238 16.4536 1.07924 -2.32444 0.863813 0.385956 51.6238 -20.8817 -24.9933
3979 1 Ar 7.83084 16.3063 0.976321 -0.808287 1.41824 -1.06121 1.22512 1.73375 -3.38543
19 1 Ar 9.56223 16.5507 0.792052 0.659064 -0.497937 -1.56228 13.349 3.19129 -15.8114
779 1 Ar 9.48328 15.4124 0.616082 -0.687546 0.774704 -1.19959 -0.51128 4.5806 17.7471
381 1 Ar 10.4168 15.9314 0.925061 2.20402 -0.307095 0.364986 -10.3207 24.0928 50.3315