ITEM: TIMESTEP
3400
ITEM: NUMBER OF ATOMS
4000
ITEM: BOX BOUNDS pp pp pp
0.0000000000000000e+00 1.6795961913825074e+01
0.0000000000000000e+00 1.6795961913825074e+01
0.0000000000000000e+00 1.6795961913825074e+01
ITEM: ATOMS id type element x y z vx vy vz fx fy fz
47 1 Ar 1.15958 1.36411 1.44011 -0.681041 0.0600239 -0.0251557 -0.19862 8.75228 7.06745
401 1 Ar 0.182269 1.45162 1.01372 0.0189402 -0.996942 -0.316752 -7.16236 -10.1116 -8.60092
412 1 Ar 1.91759 0.639428 1.31603 -1.1268 0.999304 0.17076 20.7231 27.1573 13.2189
49 1 Ar 2.24782 0.541454 0.146007 -1.58291 0.704315 0.800571 2.68889 23.0709 20.6545
449 1 Ar 2.22603 1.69939 1.30424 -0.181103 -0.116211 -0.226111 2.36895 -1.18624 13.6775
3649 1 Ar 2.50388 1.37538 16.3825 -0.361417 0.426848 0.575609 19.9371 12.1458 -13.3518
3652 1 Ar 3.158 0.851871 1.11877 1.48557 -0.174608 0.0680475 -14.3612 1.78556 -4.67273
413 1 Ar 4.15518 0.694532 0.824736 -1.4829 0.402124 -0.0129375 1.84882 -13.6993 5.76848
93 1 Ar 3.46974 1.19689 0.0500199 -2.49418 -1.49989 0.677003 -3.58069 1.97979 3.87258
15 1 Ar 4.20766 1.68104 0.730722 -0.286369 1.08783 0.197561 -0.761808 29.9864 -11.9071
457 1 Ar 5.22213 1.44572 0.981793 0.0623626 1.99171 0.358732 -7.05346 -12.5582 -2.78176
374 1 Ar 5.08927 16.3492 1.31566 0.731173 0.184525 -0.0961722 -1.4687 0.698432 4.18113
17 1 Ar 4.64929 16.7199 0.353539 0.824875 -0.294402 -0.518794 9.73005 -2.84473 -4.04742
417 1 Ar 7.34036 0.768264 1.05214 -0.10234 -0.441961 0.54453 6.59294 -14.6676 14.8609
459 1 Ar 6.06949 1.71087 16.6667 0.186699 -2.06441 -0.158497 1.30645 -17.4515 33.1118
375 1 Ar 6.43311 1.16741 0.849984 -0.82206 0.110448 -0.470746 -35.6691 6.01916 12.0206
18 1 Ar 8.73059 16.3806 1.40969 0.03869 0.83149 0.107581 2.32891 7.49059 -3.55281
458 1 Ar 8.08955 1.7535 0.200631 1.07104 -1.18273 -0.474975 -2.62604 -4.24245 -17.9329
379 1 Ar 8.10036 0.734016 0.369476 0.176909 0.4065 0.56306 10.7233 -12.0714 -8.21337
24 1 Ar 8.96377 0.967943 1.11533 -0.402637 0.923775 -2.36076 -26.1118 25.8151 14.7784
25 1 Ar 10.3404 1.609 0.879007 1.22221 0.0655002 0.460992 -6.98568 4.80218 3.9263
65 1 Ar 9.55163 0.55546 0.456531 0.566523 -1.18317 -0.498674 26.2654 -13.0425 -28.3474
27 1 Ar 11.4976 1.28819 0.757663 -0.490418 0.686218 -0.241297 1.02793 12.0345 -3.34491
386 1 Ar 11.7585 0.376986 1.21596 -0.904193 0.94414 0.669005 1.4563 -13.2693 0.93962
31 1 Ar 11.9451 0.576359 0.00882541 -0.911744 -1.51603 0.665849 -6.01351 -0.164496 25.3804
3627 1 Ar 10.8536 0.708714 0.0824167 0.877368 -1.85831 0.440531 16.4253 7.21901 7.50014
33 1 Ar 13.0376 0.289639 16.7562 -0.825522 0.71492 0.535421 -9.74495 13.9073 6.71503
429 1 Ar 12.6983 1.16635 0.573674 0.469913 -0.774551 -1.26798 -27.937 1.73054 5.37843
433 1 Ar 12.9335 0.110303 1.24531 0.0482183 -0.252388 -1.24564 -28.2932 37.9192 33.5728
3631 1 Ar 13.5894 1.25785 0.109984 0.286664 0.431563 -0.416685 14.4591 2.31846 -22.2208
34 1 Ar 14.2603 0.448829 0.403798 -1.37699 0.475053 0.303009 0.800979 -4.36314 2.65446
477 1 Ar 14.7201 1.57802 0.329254 -0.00780208 0.627381 1.24131 -5.40641 -5.02116 3.37529
473 1 Ar 13.6093 1.11047 1.08698 -0.62622 -0.366193 -0.107878 10.0569 -12.3629 37.4114
79 1 Ar 15.4885 0.0317858 0.184885 -1.474 -0.0488347 -1.0888 4.91198 -1.0377 10.5171
43 1 Ar 15.8559 1.25041 0.385178 0.186038 0.707858 0.57552 -3.984 -0.895718 -1.99348
441 1 Ar 16.058 1.92915 1.18957 1.33586 1.14528 -0.469773 26.5838 -24.9755 -19.3905
798 1 Ar 16.3258 0.108486 0.903976 -1.37699 0.702246 -0.204634 0.212087 9.80231 5.83132
83 1 Ar 16.555 2.25168 0.0900549 -0.660903 -1.02853 1.23283 -7.78499 14.9092 20.7987
402 1 Ar 0.440598 2.44496 1.27056 0.21199 -0.272736 -0.126823 -3.29983 -3.68394 3.48224
442 1 Ar 1.46747 2.47063 1.08571 0.146108 0.451408 -2.02463 -20.0228 -30.7661 -13.5224
481 1 Ar 0.830983 1.99289 0.36159 0.840263 1.11852 -0.0185254 -17.8468 -5.62414 4.10355
446 1 Ar 2.3352 2.65478 0.584224 -0.420434 -0.337943 -1.99629 5.2686 -2.32914 8.65297
3643 1 Ar 1.84247 1.62236 0.337362 0.945783 1.18434 0.927883 -2.87263 -18.6391 12.049
12 1 Ar 3.20587 2.07094 1.09645 -0.387742 -0.210382 -0.917686 -1.50388 -18.3262 74.4579
453 1 Ar 4.00837 2.78955 0.904887 0.506088 -0.0677694 0.131178 9.13692 -16.5746 -5.44702
53 1 Ar 4.85125 2.56797 1.59613 -0.0979059 0.0720212 0.256331 2.51942 1.31378 -0.156765
490 1 Ar 5.97105 3.06173 0.0393593 -0.166687 -0.935868 -0.764906 -2.49432 -9.58606 -2.8518
456 1 Ar 5.1534 2.20931 0.21642 0.241346 0.498077 -0.723346 -7.15382 1.88981 -7.45191
60 1 Ar 7.347 2.17133 1.06742 0.81521 0.258159 -0.159894 19.0715 -2.24973 11.892
95 1 Ar 5.92665 2.16073 0.972794 -0.0970326 -0.152984 0.214321 16.1211 18.0946 4.18888
94 1 Ar 7.72893 2.76491 0.248086 0.770274 -0.00921665 0.512085 2.20549 13.3801 -10.1145
58 1 Ar 8.3846 2.36017 0.944892 0.0398574 0.194135 -1.58951 16.9124 9.01334 17.9045
461 1 Ar 10.3528 2.27038 1.84619 -0.115204 0.669178 1.78571 -58.0326 10.1124 18.7538
68 1 Ar 9.27516 1.75673 0.375741 -1.00035 -0.387306 -0.371442 -1.3008 -1.35655 3.47947
107 1 Ar 10.5669 2.77921 0.972781 -0.637167 -0.414411 1.58395 -1.76779 5.88174 -26.8619
69 1 Ar 10.8832 2.06905 0.115681 1.15751 -1.45767 0.513418 5.85325 -0.61238 -1.12903
106 1 Ar 11.2223 3.08474 0.0122493 -1.37928 -0.0175712 -0.255814 -5.90046 -13.5616 -8.44402
67 1 Ar 11.5269 2.42164 0.966598 2.32601 -0.701163 0.711445 14.6893 5.34458 -33.8515
32 1 Ar 12.0133 2.00037 16.7218 -0.756174 -0.0112273 -0.375366 -8.47546 -5.96612 5.87966
73 1 Ar 12.5321 2.14081 1.10144 0.833418 0.0537491 -0.960429 29.1967 -6.83695 -59.4391
110 1 Ar 12.3664 3.01633 0.1352 -0.573582 -1.42018 1.75134 -6.69552 12.1626 2.5212
36 1 Ar 13.6259 2.15073 0.908363 0.271864 -0.533538 0.605332 0.320384 -6.57294 21.8972
3714 1 Ar 14.1376 2.54769 0.135894 -1.32588 0.391998 -0.0783203 13.9826 3.34336 -14.6124
74 1 Ar 14.596 2.81688 1.11639 0.656184 -1.62789 -0.659324 -0.475316 -6.1253 -3.68614
44 1 Ar 15.4212 2.43393 0.519199 0.533666 -1.09181 -1.09545 -6.77227 -6.65611 -7.45841
117 1 Ar 16.1437 3.1745 0.756266 -0.173157 -0.210816 0.381359 17.1525 -4.87382 1.34828
3683 1 Ar 15.7527 3.21627 16.5773 0.976367 1.63169 1.07292 9.10336 -10.9499 -11.4777
525 1 Ar 0.645768 3.27563 0.589634 0.161013 0.749526 -1.42478 3.67796 6.74214 13.5353
120 1 Ar 16.6043 4.01432 1.2843 -0.388955 0.421025 1.29104 13.1211 -3.02589 -3.63929
3724 1 Ar 0.520944 4.46369 0.357565 -0.958395 -1.58622 -0.935417 4.22588 6.36691 2.49863
84 1 Ar 16.7757 3.73011 16.6285 0.935987 0.640443 2.30891 -27.2736 -1.22096 4.92513
521 1 Ar 1.30366 4.25655 1.19531 0.386839 0.113114 1.21487 -3.1824 6.30094 -10.9953
48 1 Ar 1.56825 2.46759 16.6648 0.500612 0.366057 1.01947 3.00812 27.0827 -25.2134
485 1 Ar 1.80773 3.32437 1.42696 -1.1071 -1.56697 -0.203533 18.5939 31.4259 8.74691
50 1 Ar 2.74223 4.08509 0.580774 -1.12188 0.562537 -0.158233 -14.0305 22.3174 0.573514
123 1 Ar 1.73398 4.55329 0.10303 -0.831982 1.2066 -0.19737 -9.02196 -1.04749 -1.60143
90 1 Ar 4.26899 4.34128 0.416273 1.00983 0.522497 -1.2228 8.29267 11.3261 13.5987
529 1 Ar 5.15836 3.17379 0.752877 0.751884 -0.82569 -0.78849 3.03307 -2.55117 -6.03896
131 1 Ar 4.6373 3.89267 1.29979 1.20903 -0.260921 0.49603 8.9217 3.83254 13.226
136 1 Ar 6.02432 3.87648 0.980855 -0.452259 -0.0865306 0.581943 -5.77176 -0.0625697 -8.17266
894 1 Ar 5.85519 3.03121 1.65934 -0.302997 -0.222918 0.145399 4.41263 -6.20705 -12.822
494 1 Ar 7.38056 4.14084 0.800319 -1.4841 -0.238464 1.23451 -9.00921 12.6324 4.20643
500 1 Ar 6.84816 3.26191 0.837319 -0.0194823 2.04969 -0.087061 0.728242 -16.3297 -2.72938
533 1 Ar 6.59979 4.80355 0.480121 -0.292649 -0.426318 0.920126 0.733719 25.561 -40.4516
537 1 Ar 8.38458 4.24553 1.16209 0.965042 -0.15902 0.61577 -9.25042 19.0124 -8.91791
898 1 Ar 7.87881 3.31626 1.23152 -0.328072 -0.302541 -0.150672 -5.57915 -13.4878 12.3849
144 1 Ar 8.70195 3.36009 0.567179 -0.926677 -0.402278 -0.270492 -2.48579 27.957 19.3608
101 1 Ar 9.54973 2.73039 0.911307 1.04762 0.330336 -0.993889 -16.9202 -6.94463 -5.28322
103 1 Ar 11.2166 3.74636 0.817774 -0.014916 0.456687 0.490586 -1.18409 -15.7202 6.49814
102 1 Ar 9.98053 3.66261 0.754939 -0.108036 0.253027 -0.848992 5.52768 -20.7615 18.3235
72 1 Ar 11.7046 3.70105 15.5101 1.2979 0.459296 0.0915113 -6.02992 -9.87993 -0.337611
112 1 Ar 11.8584 4.44913 1.29211 -2.34129 -0.769653 0.917967 8.49904 5.9034 -18.4664
113 1 Ar 12.6519 4.03254 0.5206 1.30901 -1.64819 -2.05524 11.0205 1.22259 9.15995
513 1 Ar 13.1322 3.11582 1.0492 0.398692 0.259278 -0.491468 20.2865 -3.28127 -34.2929
155 1 Ar 13.6505 4.42932 0.997275 -0.751789 -0.181498 -0.912106 -4.27847 -11.0169 0.292067
3716 1 Ar 13.4065 3.19855 16.431 0.435058 1.83864 -0.329399 16.1058 3.88496 24.1771
115 1 Ar 14.0982 3.55816 0.527588 1.23435 -1.43141 -2.12666 -9.89031 -0.686248 -3.48752
114 1 Ar 15.1611 3.49376 0.546989 0.932798 0.462803 -0.660123 -16.332 14.5846 5.22734
593 1 Ar 15.1257 4.48945 1.13487 -1.68731 -0.514118 0.520703 21.7369 -6.29433 34.2509
200 1 Ar 15.5023 3.53247 1.56471 -0.690844 0.523879 -0.240239 6.59982 12.7706 -1.39414
124 1 Ar 16.1007 5.21947 0.59403 1.2901 0.132956 0.0857517 -4.86989 2.48721 12.2894
81 1 Ar 15.9571 4.21638 0.441339 -0.285531 -0.610232 -1.51472 -2.5742 -10.2848 -9.09484
163 1 Ar 1.26503 5.39147 0.522476 0.706867 -0.699853 0.0050817 -7.26017 -19.9246 20.7202
157 1 Ar 0.519909 5.05767 1.32879 1.01332 1.2562 -1.0192 -43.9953 -8.31996 -26.7741
561 1 Ar 0.00105443 5.58193 16.7365 -0.323451 -0.294759 0.489829 22.1919 -6.29521 -15.5478
565 1 Ar 2.19288 5.10467 1.16427 -1.65547 0.414362 -0.53072 -5.45699 -4.85583 -2.96729
128 1 Ar 2.13664 6.13741 0.666175 1.12203 0.0426011 1.0024 8.03738 -0.773732 10.3272
165 1 Ar 3.38278 5.06659 0.71168 -0.913966 0.764104 -0.26021 -1.51087 -1.66394 -1.47691
491 1 Ar 3.8738 6.01303 1.10563 1.19133 0.405218 -0.0820003 12.7024 -2.06727 -25.6686
133 1 Ar 4.72317 5.21098 1.20282 0.839339 -1.44329 -0.361432 0.392665 13.8745 -2.45789
573 1 Ar 6.55613 4.76105 1.43199 -0.71906 0.162796 -0.375676 7.90865 2.83963 49.4209
96 1 Ar 5.34049 4.57111 0.672092 -0.777793 1.82493 0.244405 -1.03555 2.17141 -4.68267
534 1 Ar 7.57338 5.24378 0.752755 0.884953 0.188766 -0.291787 -13.6311 -29.6043 17.6708
139 1 Ar 6.67758 5.99707 1.8154 0.351174 0.0551736 0.622506 7.82022 0.227484 -14.4353
3735 1 Ar 5.81464 5.54267 1.19445 -1.71757 -0.813246 -0.101926 -8.71086 -3.19143 4.76856
539 1 Ar 8.67646 5.26564 0.607725 -0.555528 -0.206836 -1.35723 11.0183 -13.4817 -1.02065
541 1 Ar 9.5571 4.5623 0.7627 0.237493 1.72849 1.32141 -15.0629 20.7288 -0.772775
145 1 Ar 10.6329 4.55583 0.968605 0.200877 0.488798 1.74837 -16.2543 2.93409 -14.1059
546 1 Ar 10.6712 5.94283 1.11493 -0.921689 0.581545 -0.79286 0.285425 -15.4114 -14.2276
147 1 Ar 11.6029 4.8872 0.326523 -0.793731 -1.02066 -1.23781 -6.46961 14.2723 3.35477
151 1 Ar 11.9041 5.62543 1.26406 0.725152 0.754548 1.28918 -6.07719 3.27038 -5.25226
189 1 Ar 11.1627 5.84367 16.5862 0.666024 1.04916 -1.05318 1.99206 -2.52508 1.72779
153 1 Ar 12.6311 4.92365 16.6882 0.974671 0.103954 -0.484466 -15.1597 -14.0258 3.60373
591 1 Ar 12.8232 5.08284 1.23216 0.13986 -0.172065 0.607858 0.759947 1.02116 -2.17559
550 1 Ar 13.4428 5.44045 0.311858 -0.204895 -1.17283 0.395917 -3.91139 -3.4038 10.7414
159 1 Ar 14.5463 4.53068 0.352624 -1.19833 1.07971 -1.48014 -19.7631 8.8048 -23.3693
599 1 Ar 15.0723 5.5075 0.818576 0.353034 -0.49649 -0.0370629 -2.1984 10.6392 -5.17086
596 1 Ar 14.0364 5.36237 1.2211 -0.473174 -0.890506 1.25305 9.30904 -2.57663 3.45428
121 1 Ar 15.4083 5.19272 16.4169 0.977282 -0.619917 0.941979 -6.86821 -1.65575 8.91846
160 1 Ar 16.09 6.27204 0.334114 1.05045 0.257631 0.265535 2.61005 -6.26999 11.6084
605 1 Ar 1.34939 7.03076 0.920757 -0.964562 0.587123 -0.16353 7.01309 11.5729 -10.3342
158 1 Ar 0.251724 6.04601 0.806058 -0.456318 -0.140995 -0.101196 7.98552 3.59723 14.8608
602 1 Ar 0.500107 7.74398 1.07972 0.315535 0.133138 -0.029727 9.64876 -6.72429 -2.54396
205 1 Ar 0.481202 6.9669 0.150297 -0.26367 0.407315 -0.235625 3.19092 -18.7152 -6.96566
522 1 Ar 2.29506 7.55123 0.240876 -0.793895 -0.131749 0.268119 0.833609 -10.6031 17.6155
608 1 Ar 1.19928 7.68153 0.149692 -0.41682 1.25218 0.129748 14.3441 23.206 -13.8373
173 1 Ar 4.01598 7.11669 0.843605 -0.374042 -0.552499 0.114181 9.70942 -7.27514 7.60632
167 1 Ar 3.79988 7.98121 0.255123 1.1602 0.681828 -0.118975 -3.64096 13.5081 8.24688
132 1 Ar 3.31778 7.04261 0.0490113 0.586231 -0.279395 -0.408506 36.7686 13.3519 23.244
130 1 Ar 4.88533 6.30588 0.712289 -0.739693 -2.14396 1.09039 -4.8722 1.45949 -1.30784
3736 1 Ar 4.694 6.49592 1.78946 0.674556 0.375215 0.51238 -6.85085 -4.4804 5.67078
174 1 Ar 5.09858 7.44898 0.468987 0.54834 0.826936 -0.93869 -25.8727 -3.54577 -11.4349
3734 1 Ar 5.35964 5.53413 0.161118 -0.367426 1.59223 -1.39335 -2.76036 8.2002 -0.492759
177 1 Ar 5.91656 6.63451 0.316824 -0.668156 -0.391072 -1.34263 -9.75554 7.67873 -3.84248
179 1 Ar 7.18876 6.61243 16.4893 1.47839 0.416976 -0.323886 -1.57887 -1.44741 7.57213
180 1 Ar 7.60219 6.28462 1.02129 0.172443 -0.284117 -0.123642 -37.5411 38.1623 45.3077
183 1 Ar 8.88241 6.33279 0.764735 0.65411 0.915537 -0.187023 -10.2653 -0.608675 -11.6385
219 1 Ar 8.16983 7.11696 0.366764 -1.28958 -0.296189 -0.151838 0.650376 -1.45465 -0.91415
148 1 Ar 9.75119 5.87019 0.285541 0.263873 -1.13175 -1.02803 2.90652 2.86831 2.57081
585 1 Ar 9.78454 6.61236 1.24871 -0.944474 0.793964 -0.739292 27.4308 -0.812977 -13.2253
225 1 Ar 9.73307 7.98906 0.644572 0.931383 -0.278958 0.0546882 13.0246 38.6643 -14.3273
181 1 Ar 10.479 6.76534 0.316603 1.16282 -0.396157 1.31261 5.25293 -5.02356 3.89704
187 1 Ar 11.5169 6.54862 0.562404 0.521705 -1.11794 0.390071 2.78372 3.71355 3.94138
586 1 Ar 10.4876 7.48398 1.16703 -1.34588 0.605105 0.540911 5.3818 7.33751 -0.761538
191 1 Ar 12.3853 5.96135 0.229919 -0.256574 -0.218781 -0.446168 2.09641 -1.26958 4.79215
590 1 Ar 13.5126 6.24868 1.0275 -1.16896 -0.396663 0.219905 -26.8804 5.61661 -17.7354
190 1 Ar 12.5102 6.78497 1.31643 -0.110488 -1.10295 0.706598 3.39417 -8.25351 -9.41738
3791 1 Ar 12.3712 7.2621 0.204419 -0.148361 -0.71583 0.636588 -1.30418 -1.3144 -1.52515
3760 1 Ar 14.3366 7.33828 0.710873 0.907483 -1.02749 -0.00180501 -0.941839 12.4404 -1.37511
3793 1 Ar 14.3838 6.37234 0.32531 -0.884429 0.221378 -0.807163 -2.08442 -19.7796 -0.626036
164 1 Ar 15.264 8.18881 1.08497 0.190478 -2.14116 -1.20281 -3.10366 -0.625959 -3.11507
199 1 Ar 15.2746 6.78076 0.851664 0.11636 0.84427 0.502095 -5.29174 -9.63015 -8.29747
3799 1 Ar 16.3826 7.28638 0.468125 -0.474208 1.71363 -0.445377 -21.9238 9.53879 3.01008
645 1 Ar 1.47884 8.3906 1.31485 -0.912976 -1.30054 0.469957 -8.78533 -2.63499 3.06943
638 1 Ar 0.363607 8.69749 1.57865 1.51001 1.5589 -0.0522063 3.865 7.50141 2.205
3808 1 Ar 0.518809 8.5092 0.148686 -0.535345 -0.604576 0.531256 -5.91147 5.16136 7.82456
609 1 Ar 2.45907 7.94733 1.23882 -0.402566 -0.30095 0.533193 -9.49839 -9.10637 -27.4971
207 1 Ar 2.05555 8.53599 0.273712 -0.609546 0.388572 0.121325 -3.18364 4.02213 -11.0085
170 1 Ar 4.34836 7.68219 16.2202 -1.39113 -1.38307 0.0460121 -4.02082 -4.64111 23.9136
210 1 Ar 3.10892 8.86794 0.431406 -0.528113 1.55382 -0.586026 -4.94403 -10.7217 4.16103
3772 1 Ar 4.68729 8.61937 0.0796663 -0.194388 -0.1823 -0.144091 5.41749 -30.3008 1.98625
175 1 Ar 5.15242 8.42439 1.04194 0.0398746 -0.90017 -0.00467795 -17.7171 7.16099 -20.3882
3774 1 Ar 6.03591 7.72564 0.713717 -0.532431 -0.615717 -0.982186 17.7231 8.09787 -8.95757
215 1 Ar 6.94423 8.74358 0.788162 -0.115478 0.172957 0.228678 -2.23105 -0.306855 -3.66294
178 1 Ar 6.6643 7.01021 1.13214 -1.66502 -1.58294 0.417816 1.36147 -15.8729 -4.10364
618 1 Ar 7.05141 7.59138 0.14113 -0.314382 -1.50267 -0.861025 0.0791151 -4.82218 9.94313
184 1 Ar 8.70578 8.40247 1.0119 -0.562207 -0.615046 -1.32884 -2.7764 4.85999 0.84069
621 1 Ar 7.3667 7.75294 1.41216 -1.47576 0.0992672 0.795946 -6.52313 13.9077 -0.40258
582 1 Ar 10.4178 8.70488 1.18381 0.82128 -0.00758431 -0.599816 49.1315 -7.6842 -9.49099
625 1 Ar 9.56972 9.07827 0.840846 0.292409 -0.22558 -0.948237 -13.631 8.30782 -10.4697
188 1 Ar 10.2872 7.69608 16.5874 -0.503388 -0.0474506 -1.10721 -2.8947 -0.925382 -9.90209
192 1 Ar 11.7528 7.52496 1.14354 -0.356558 -0.429641 0.040178 -18.4595 -15.4694 5.98559
3836 1 Ar 11.3245 8.64822 0.634704 0.607608 0.410079 0.664367 1.51992 -9.11462 -3.54567
3796 1 Ar 12.3491 8.26643 0.827081 -0.437434 1.31953 -0.165352 10.5147 6.36622 -6.67688
195 1 Ar 13.3502 8.10456 0.222371 -1.73591 -0.05216 -0.831155 7.46857 2.37804 1.61211
230 1 Ar 12.8089 9.17465 0.632637 1.25435 0.185708 0.785838 1.03826 4.42084 15.2054
3790 1 Ar 13.2614 7.29875 0.87748 0.295563 1.06463 1.75173 -2.20178 -18.3206 -24.2074
3800 1 Ar 13.9683 7.64442 15.7989 0.0300326 0.855088 -1.4177 -4.46133 -3.64467 -8.08116
3795 1 Ar 14.3632 9.67573 0.815486 -1.478 0.457727 0.0190059 33.8307 -12.6416 23.8902
197 1 Ar 14.2094 8.53979 0.836294 -1.14895 0.480617 -0.104694 13.5151 14.339 -15.4505
237 1 Ar 13.7241 9.28581 0.125587 1.59131 -0.237153 -0.476816 -3.94062 -11.2929 -7.836
634 1 Ar 15.0751 9.09557 1.65795 -0.362731 1.43494 0.449189 -6.21564 -10.5117 -7.44278
198 1 Ar 14.5798 8.14992 16.6075 0.223975 0.550367 -0.149527 -15.5535 2.52659 -1.67382
201 1 Ar 16.4592 8.2933 0.808543 0.349042 -0.690423 -0.0154185 -13.1077 8.89787 -7.84992
236 1 Ar 16.1197 8.48624 1.80175 0.0929107 0.269845 -0.206566 -10.6442 4.82889 -10.0404
3803 1 Ar 15.1302 9.02016 0.368169 1.28851 0.441391 -0.636613 -4.17876 -3.87536 -1.67611
204 1 Ar 0.354931 9.74053 0.359263 -0.986843 -0.051138 -1.20892 1.39814 -7.88879 -8.03276
243 1 Ar 1.19213 9.50937 1.70774 0.60646 0.0321044 0.784833 -7.38224 4.1721 -3.39073
279 1 Ar 0.477216 10.3554 1.21826 0.00335863 -0.136152 0.0506337 1.29472 6.78558 -3.91357
242 1 Ar 1.21262 10.1575 16.5621 -0.621249 -0.502632 -0.292795 -34.6666 -9.34478 23.3178
208 1 Ar 1.30735 9.2606 0.596329 -0.984776 -0.153492 1.33903 -9.35114 -0.522058 -2.95836
245 1 Ar 1.92753 10.9118 0.216389 0.528413 1.13287 0.434271 8.98588 2.76771 14.3878
247 1 Ar 1.50794 10.2932 0.986875 -1.20411 -0.647242 0.406064 -3.17406 6.41851 10.4028
606 1 Ar 2.24033 9.12743 1.08506 0.717202 -0.0347677 -0.16485 11.6149 -8.96348 42.3164
211 1 Ar 4.02734 8.836 1.03682 0.0623066 -0.473271 -1.97434 5.45023 0.104037 -1.98971
612 1 Ar 2.21722 9.83969 0.401386 1.62521 0.172351 0.00422384 10.0777 10.9208 -33.2131
689 1 Ar 4.27974 9.99436 1.48557 -1.33441 -0.062482 0.518978 2.49126 2.18956 -15.5413
213 1 Ar 3.58715 9.80841 0.543715 0.841655 -0.704928 0.811914 -1.45895 0.903452 8.46242
653 1 Ar 5.41191 9.54731 1.20254 -0.587822 -0.706237 -0.778529 -50.2521 9.31982 0.790353
3856 1 Ar 4.76071 10.6789 0.819697 -1.65092 -0.610804 0.506346 10.4555 9.64209 -6.06761
3815 1 Ar 5.60964 10.0413 0.0455828 -0.950759 0.745901 0.990932 6.41355 30.1381 -4.63732
217 1 Ar 4.685 9.70228 0.398374 1.53589 -0.237253 -0.00850767 -6.14275 -10.9656 4.19305
651 1 Ar 5.59437 9.0453 0.149458 -1.20279 0.197228 -0.717903 17.556 -14.6188 4.81025
297 1 Ar 6.2902 9.68215 0.87382 -0.929997 -0.650903 -0.514619 60.1833 2.04092 -17.7484
3820 1 Ar 6.55505 9.48339 16.6495 2.09025 2.29727 -0.464841 3.97897 -17.6609 2.88121
223 1 Ar 8.68906 9.65502 0.832342 -0.811129 0.526139 -0.812957 -7.98327 2.56716 -2.10375
218 1 Ar 7.62158 9.80232 0.544319 -0.910243 0.164541 0.827672 8.47535 -22.0615 -15.5001
224 1 Ar 7.77728 8.9671 1.47543 -1.13552 -0.0821681 1.10285 5.10383 1.65121 -1.4033
669 1 Ar 10.7133 9.53296 0.424539 -0.808742 0.400242 -0.836051 -1.7585 -8.845 2.42352
665 1 Ar 9.23083 10.9785 0.299497 -0.836968 -0.7128 -1.39076 -22.6155 -23.9721 19.8146
626 1 Ar 9.66325 10.184 0.868556 -0.824863 1.10631 0.708273 12.9299 -16.8508 -12.0718
628 1 Ar 9.27051 9.66067 1.94909 1.31864 -1.69731 0.742148 4.32782 -8.81688 -9.41986
267 1 Ar 10.8102 10.2577 1.17637 0.431556 0.00413536 -0.372674 13.045 7.02875 -21.7059
672 1 Ar 11.5871 9.57179 1.21245 -0.644189 1.00666 -2.05097 2.43938 -8.95213 -2.82018
194 1 Ar 13.4849 10.1595 0.825512 0.136894 -0.684597 0.376639 -20.3726 -24.8782 42.0975
3871 1 Ar 12.3311 10.239 0.865646 -0.901478 0.926299 -0.172933 6.93667 -9.36432 -5.89284
233 1 Ar 14.5199 10.2813 0.0168307 1.23208 -0.802033 -0.595038 -0.832191 -5.07905 6.29382
234 1 Ar 15.4454 9.93343 0.80284 0.565039 0.460554 0.48715 -3.8415 1.38989 -16.0657
240 1 Ar 16.3135 9.39274 0.996001 0.21427 -0.0276158 0.299867 8.93797 -21.0053 0.482337
717 1 Ar 16.2306 10.3401 1.36672 -1.42197 -0.98037 0.62898 -4.86392 28.3563 9.17364
282 1 Ar 0.702566 12.2944 0.341598 -1.45312 1.07907 -0.170759 -7.10257 -63.5866 0.959361
212 1 Ar 2.75913 10.3868 1.18313 0.576586 1.67291 -1.77604 8.3711 5.32792 -9.02986
248 1 Ar 1.00393 11.263 0.644179 -0.218862 -0.705854 1.04683 16.3697 1.95179 14.1673
287 1 Ar 1.86679 11.458 1.38771 -1.01264 0.0687033 0.824965 43.3065 8.61163 -13.5267
649 1 Ar 3.70276 10.7779 0.909684 -0.995945 0.617549 0.0475438 5.97397 16.1108 4.6656
331 1 Ar 2.87613 11.6527 0.712715 -0.391517 -0.628544 0.376618 0.711741 -3.26698 -3.20741
327 1 Ar 4.45397 13.2278 16.053 0.25693 1.11595 0.0158377 6.76394 -6.53687 13.9788
250 1 Ar 5.5534 11.8254 1.07237 -0.763168 0.309185 -0.28339 -0.957495 -1.4545 2.04319
696 1 Ar 4.52665 12.1644 0.402282 1.93623 0.901477 -1.10916 18.3937 18.9011 16.5004
264 1 Ar 7.04192 11.5059 1.63496 -0.145457 0.272986 -0.301082 -2.83143 15.1016 12.3838
257 1 Ar 6.81673 11.1217 0.733007 -0.198206 -0.136408 -1.32801 4.67088 6.50445 -23.0661
301 1 Ar 8.01284 11.8287 1.17191 2.08629 -0.643375 0.0186808 7.56166 -5.97735 0.244764
662 1 Ar 9.1824 11.9441 1.1744 0.265676 0.270609 -1.18366 -10.8841 -19.0943 -21.1908
259 1 Ar 8.05786 10.6935 0.933844 -0.188659 0.581178 0.925846 9.44571 12.451 -19.9335
258 1 Ar 7.70183 11.4527 16.7358 1.66057 -0.954877 0.180603 11.341 -0.944644 39.4806
668 1 Ar 10.0433 11.2928 1.0308 0.948894 -0.420907 -0.157659 -3.09928 -11.1585 -31.7101
3867 1 Ar 9.69808 11.5262 16.4514 -1.402 -0.41377 1.03308 24.9962 25.1701 -19.7721
3907 1 Ar 10.456 10.6529 0.152035 0.639071 -1.81359 -1.06516 -6.56479 4.38613 1.56793
269 1 Ar 10.8151 11.385 1.74617 -0.191113 -0.457779 -0.885416 16.1325 -8.10671 10.6299
272 1 Ar 11.5365 11.2239 0.794238 0.811839 -0.992642 -0.984813 -4.28265 -3.42362 -4.34341
3866 1 Ar 11.6002 11.7368 16.4899 0.634358 -0.0194742 -1.35367 14.1968 8.28884 2.08193
270 1 Ar 12.1282 11.7947 1.45889 -1.18342 -1.32677 -0.102296 7.16897 -4.72871 8.81085
353 1 Ar 13.189 11.5729 1.70553 -0.379704 1.91754 -0.613879 10.786 2.91655 0.184916
3949 1 Ar 12.7274 12.0641 0.0214257 0.877224 -0.955289 -0.817715 2.63168 -7.8727 24.934
273 1 Ar 12.7025 11.2096 0.781039 0.5489 -0.358798 -0.560807 8.30668 9.35165 4.04375
3916 1 Ar 14.5382 11.6798 0.527225 -1.48356 -0.773552 -1.5408 -13.7027 -12.5048 7.55956
315 1 Ar 14.7477 10.7229 0.944758 -0.189271 0.847673 0.371745 -1.15673 8.0486 1.70087
317 1 Ar 14.9275 11.9452 1.44787 0.285331 0.263845 -0.0362309 20.093 -34.3851 28.9661
275 1 Ar 15.2605 10.9928 16.721 0.758392 0.436084 0.90868 3.03388 -11.3276 10.3493
720 1 Ar 15.111 10.1347 1.75031 -0.288615 0.0163685 0.726171 -22.1443 15.7243 6.22863
319 1 Ar 16.6327 11.3367 0.750008 0.290367 -0.190716 -1.03956 2.42254 11.4222 15.206
3884 1 Ar 15.598 11.8514 0.452942 0.755512 -0.040976 -0.55938 -18.6894 -6.56884 -5.87841
284 1 Ar 1.12644 12.4702 1.56042 0.170773 -0.735999 0.376442 2.0762 -5.85332 -1.66202
328 1 Ar 0.952832 13.1994 0.430066 0.292012 0.330005 0.990975 40.812 57.2494 33.5318
365 1 Ar 0.931003 14.1983 1.09614 0.116887 -0.0843895 -0.451265 -16.949 -9.13092 -12.204
285 1 Ar 2.70523 12.6642 0.131001 0.35821 0.0713685 0.625011 -15.0529 -7.0799 -2.38697
725 1 Ar 1.76686 12.2933 0.649454 -0.022016 -1.03076 1.18304 -15.0896 -7.33136 -23.1759
766 1 Ar 1.73768 13.1863 16.567 0.386806 0.533984 -0.595077 13.652 1.26854 7.99423
732 1 Ar 2.8079 13.5395 0.726176 1.27273 0.942061 0.894416 3.13098 7.63477 3.54379
1171 1 Ar 1.83272 13.2573 1.10954 0.0233243 0.0910234 1.17329 -5.66956 9.78599 -5.33784
692 1 Ar 2.43584 12.3895 1.38856 -0.176501 0.248184 0.640438 17.4783 4.12901 18.0463
693 1 Ar 5.69677 12.3704 0.0604406 0.694174 -1.32564 -0.031321 7.2958 -1.83183 1.16331
729 1 Ar 5.19152 13.1849 0.516867 -1.0315 -2.37801 0.489394 -12.7103 -2.79708 4.11252
694 1 Ar 6.97387 13.4431 0.551792 -0.877523 -0.868581 0.340276 -6.17722 8.88827 -9.12035
295 1 Ar 6.82471 12.2854 0.254552 0.934056 1.15827 1.141 1.05976 0.844437 2.34735
302 1 Ar 7.91888 12.6572 0.126806 0.421756 0.023196 0.862 -11.5557 1.55548 -3.03279
700 1 Ar 6.18666 12.7742 1.10254 0.726429 0.562335 0.251721 9.58664 -3.38832 -17.8363
3864 1 Ar 8.63411 11.8955 0.12632 -0.367557 0.26154 1.30518 12.5947 13.7584 31.142
266 1 Ar 8.96508 12.8629 16.6804 1.95631 -1.02559 1.02818 -24.0084 13.5833 -5.85424
3903 1 Ar 8.6007 12.8679 0.87964 -0.340212 1.66684 -0.652699 5.56575 -1.04898 12.6614
666 1 Ar 10.7446 11.9343 0.269088 1.43586 -0.547656 0.161128 -8.81396 0.470393 7.89004
707 1 Ar 9.75179 12.4867 0.387629 0.794493 -0.820311 -0.723469 14.5466 -14.2675 8.82528
309 1 Ar 10.3054 12.2074 1.3694 -0.982443 -0.478146 0.908684 -8.59473 19.1959 3.53099
308 1 Ar 10.6173 13.0299 0.793543 0.505499 -0.0613449 -0.29337 3.89312 6.45126 -4.98151
3912 1 Ar 12.8784 13.1964 0.396833 0.228185 -0.468 0.117851 -0.913594 1.21138 7.01948
312 1 Ar 11.3481 12.5275 1.43182 -0.26758 -0.430188 -1.26036 -32.9466 -8.2624 41.2584
3947 1 Ar 11.8986 12.4395 0.638562 1.19583 0.236407 0.0969986 22.3092 -9.48315 -42.4941
3951 1 Ar 11.8603 13.3599 1.14568 0.107248 0.0120819 -0.862081 36.9698 10.6712 80.2336
310 1 Ar 13.0734 12.3816 1.04958 -0.740429 0.498037 0.191563 -14.6562 -7.82195 -5.63492
356 1 Ar 13.3696 13.2318 1.58563 0.491116 -0.651735 1.6021 -5.48796 -3.45897 -4.87286
360 1 Ar 14.0715 12.4532 1.41016 -0.357851 -0.200676 -0.234136 -16.1636 8.46379 6.40987
3920 1 Ar 14.9596 12.7201 0.85574 1.07579 0.389306 -0.927981 -2.84413 33.3506 -27.6491
354 1 Ar 13.9023 12.8358 0.479222 0.0438971 -0.752239 -1.69143 12.0033 8.93289 5.65721
357 1 Ar 15.8424 13.4877 0.716683 -0.528804 1.17925 -0.18277 3.50032 -3.21659 -5.31996
322 1 Ar 16.4719 12.294 0.198264 0.620782 1.11721 -0.303849 1.18777 10.0251 -1.58491
321 1 Ar 0.112992 13.3039 1.10334 -1.59053 1.10011 0.944743 6.42579 -2.41 -6.89315
765 1 Ar 16.6731 15.1944 1.12288 -1.15481 -1.05436 0.228164 14.5296 4.57968 -0.296994
368 1 Ar 1.03699 14.9896 0.334245 0.69936 0.369352 0.673428 5.42495 23.009 24.3402
768 1 Ar 1.32094 15.0321 1.53448 1.37953 0.131201 0.421069 -9.67314 55.4006 -22.349
367 1 Ar 2.54518 14.7485 1.17432 -0.0445024 0.163154 1.28959 -11.1928 -18.1001 7.39029
371 1 Ar 2.93918 14.6639 0.239683 -0.0838615 -0.523383 -0.319123 -21.7933 -2.77567 -21.774
690 1 Ar 3.94939 13.5947 0.668141 -1.11782 0.613833 -0.173233 1.14541 -3.5616 0.449312
336 1 Ar 3.89555 14.7204 0.489589 0.990966 0.237492 -0.5765 28.5171 0.656125 9.79266
733 1 Ar 5.93175 13.9111 0.611147 1.04658 -1.23727 0.982683 5.47249 -5.36028 7.1153
736 1 Ar 4.96075 14.8547 0.863541 -1.26736 -0.526122 -0.525426 33.592 41.3639 -36.1727
740 1 Ar 6.74779 14.595 0.446283 0.884568 1.17203 -2.09626 13.3273 -6.71082 4.02944
335 1 Ar 4.78242 14.1128 16.5953 -1.34844 -1.96373 0.47046 13.3355 8.92978 12.6466
339 1 Ar 6.63522 13.4613 1.85321 0.00439206 -0.155882 0.306895 -4.10517 11.8121 -2.45225
338 1 Ar 7.09419 15.6734 0.960422 0.217091 1.31079 1.19791 32.7719 -23.147 -9.00065
343 1 Ar 8.80446 13.7188 1.57022 0.213075 0.517899 0.138879 -7.49667 -0.86304 -10.2531
3944 1 Ar 8.33549 13.8201 0.330207 0.796287 -0.256531 -0.186645 3.38455 -2.1422 2.34392
3943 1 Ar 8.88525 14.8308 0.275581 -1.10637 -0.210044 1.34225 38.5983 -9.05178 -2.87968
305 1 Ar 9.54787 13.5519 0.442571 0.16643 1.09703 0.252828 2.61945 8.74777 5.64531
345 1 Ar 10.5388 14.0745 0.54976 -0.102266 0.701153 1.75525 -4.16075 11.9711 -8.98464
385 1 Ar 11.5874 13.4657 0.26476 -0.45194 -0.543268 -0.314598 -26.2918 12.9853 -83.5711
307 1 Ar 10.9836 13.9219 1.46618 0.0232291 1.073 0.329622 -2.37204 -10.0074 8.90209
348 1 Ar 11.6282 14.5624 0.585476 0.735056 0.625914 0.581688 -20.4082 -12.2465 -2.1987
393 1 Ar 13.8501 13.9555 0.762322 0.39197 1.63234 0.739869 -2.69765 -13.2254 9.25922
350 1 Ar 12.6008 14.2747 0.540482 -1.19618 -0.65762 -0.517969 27.9673 -11.4563 19.9822
391 1 Ar 14.5505 13.6424 1.59329 1.03004 0.197917 0.381391 -0.776709 -13.7801 -2.72148
4000 1 Ar 14.764 13.5008 0.0500039 -0.106323 0.669692 -0.19899 -11.6954 8.34816 6.72313
39 1 Ar 14.6247 14.6706 1.47512 1.26732 0.353701 -0.816654 -2.99265 14.6146 1.55129
758 1 Ar 16.7517 14.3641 0.374465 0.627518 -1.54841 0.904757 0.716167 -4.43758 13.7926
400 1 Ar 14.6651 14.5344 0.363481 0.173486 1.87401 0.473641 7.62188 5.07635 -3.56554
7 1 Ar 1.59555 16.7203 0.757735 -0.952135 -0.646134 2.20364 -40.1403 -26.6692 -33.6791
3 1 Ar 0.791183 16.0013 1.17278 -0.515992 -0.931426 0.179204 12.8838 -3.53626 -12.7948
761 1 Ar 0.598766 0.300882 1.4646 -0.129612 -2.04393 1.20317 0.0462611 1.16789 -4.23462
405 1 Ar 1.93609 16.3535 1.64419 0.141037 -0.711816 1.16088 12.0413 -8.50467 5.08518
762 1 Ar 2.05686 15.6254 0.785011 0.484838 -0.802792 -0.0776124 -12.4969 -1.88883 -5.38265
409 1 Ar 2.60564 16.5462 0.785358 -0.0229467 -0.184141 0.95479 17.4455 5.35305 4.68472
770 1 Ar 3.0735 15.6404 1.12095 -0.249162 0.0111454 0.474677 14.5054 6.80802 5.90035
11 1 Ar 3.96095 16.5797 1.70321 -0.407814 1.08002 0.655688 8.30337 5.46407 -6.30897
370 1 Ar 3.19131 15.6945 0.0273888 1.44024 1.7017 0.613158 -5.96026 1.85628 4.44629
773 1 Ar 4.16659 15.7833 0.523258 0.137141 0.178757 0.53393 -4.27209 0.621532 15.541
373 1 Ar 4.73295 15.2466 16.6274 -0.602907 -1.27119 1.97002 33.5613 -3.9825 22.4881
734 1 Ar 6.11377 15.31 0.899489 -1.54128 0.125917 0.147048 -11.6714 -5.53758 4.55344
3575 1 Ar 5.37242 15.875 0.360607 -0.233086 -0.994783 -2.1441 3.24982 6.47046 6.54781
334 1 Ar 6.48616 16.0984 16.8 1.88012 2.45382 2.09886 9.50447 -5.11312 3.32201
380 1 Ar 6.3633 16.3367 1.01178 1.4883 -2.06535 0.131937 -19.5991 21.4422 4.44018
3979 1 Ar 7.78787 16.5754 0.850538 -1.19896 -0.771275 -0.0722624 6.04203 -7.76598 13.3765
19 1 Ar 10.0754 16.3676 0.973132 0.333718 -0.023233 0.583326 8.25955 -8.8499 -6.18772
779 1 Ar 9.71433 15.4959 0.405867 1.39929 -0.030583 1.46139 15.5229 -5.60703 7.17177
381 1 Ar 11.1545 15.9928 1.48521 0.542277 -0.757875 0.0840167 -32.9819 27.0563 3.65767