ITEM: TIMESTEP
3600
ITEM: NUMBER OF ATOMS
4000
ITEM: BOX BOUNDS pp pp pp
0.0000000000000000e+00 1.6795961913825074e+01
0.0000000000000000e+00 1.6795961913825074e+01
0.0000000000000000e+00 1.6795961913825074e+01
ITEM: ATOMS id type element x y z vx vy vz fx fy fz
47 1 Ar 1.08593 1.70167 1.28948 0.289184 -0.0187137 -1.66841 6.82719 -10.6598 11.124
401 1 Ar 0.164692 1.0868 0.774959 0.893141 -0.527635 0.748401 -1.02652 4.5663 -0.40232
412 1 Ar 1.35221 0.639715 1.30309 -0.513122 1.17143 -0.909172 14.5596 5.3446 -6.40479
49 1 Ar 2.56917 0.883755 0.20754 0.896658 -1.40424 -0.0421264 -13.2265 9.28715 3.72654
449 1 Ar 2.44628 2.11217 1.33891 1.47231 0.439144 -0.434808 -15.6652 -4.31377 5.96471
3649 1 Ar 2.69839 1.61103 16.0012 0.750141 1.15507 0.81213 -12.4043 2.26246 10.5665
3652 1 Ar 2.41773 1.00277 1.33277 -0.0656332 0.264938 -0.276422 -9.79673 0.582183 -0.939738
413 1 Ar 4.34847 1.00235 0.949549 0.221469 0.669392 0.229477 -12.5736 19.5947 19.9128
93 1 Ar 3.41235 0.440102 0.522194 0.0843627 1.18252 0.409837 21.659 -9.30956 11.309
15 1 Ar 4.60543 1.91702 0.364027 0.422451 1.10381 0.685482 -7.27713 -20.8212 -1.04603
457 1 Ar 5.32165 1.75282 1.16247 0.904858 -0.645588 0.586486 -25.9716 -3.73208 -2.57836
374 1 Ar 5.07217 16.3431 1.24674 0.0613977 0.348884 -1.73374 9.77621 20.1698 -3.58523
17 1 Ar 4.61635 0.254919 0.350453 -0.731817 0.824413 -0.192782 -1.90078 -27.3803 -10.2598
417 1 Ar 7.24741 0.252308 1.04764 1.07476 -0.95154 1.0639 10.3536 -17.563 -17.0984
459 1 Ar 6.40237 1.17197 0.289015 -0.263514 -0.902051 0.847279 -1.40369 0.924299 -5.62456
375 1 Ar 7.01199 1.23927 1.15091 -0.602772 -0.323401 -0.380533 -22.0348 16.3442 -7.01164
18 1 Ar 9.07289 16.775 1.55931 -0.87112 -0.0834843 1.17827 -3.17314 -7.13961 -1.10011
458 1 Ar 8.47259 1.65023 0.48337 0.158979 0.980659 -0.959006 1.73601 -45.0478 -4.6638
379 1 Ar 8.40817 0.519776 0.656982 1.48974 -1.08155 -0.774491 -2.38697 -11.1298 8.42848
24 1 Ar 8.9856 1.11011 1.32453 -0.870757 0.500976 -0.0160125 -5.29545 12.1349 -11.7747
25 1 Ar 10.2128 1.50934 1.07109 1.751 -1.22722 1.80514 19.83 -5.83977 19.2392
65 1 Ar 9.66118 0.413321 0.720794 0.64418 1.28622 -1.95952 3.72904 5.36729 1.78413
27 1 Ar 11.5666 1.07294 1.03714 0.516437 0.533645 0.266392 1.41722 -3.5154 -8.33226
386 1 Ar 11.3122 16.6697 1.12233 0.00843123 -0.914828 0.268503 1.7415 -5.15037 12.915
31 1 Ar 11.8662 0.162155 0.160656 -0.275574 -0.372359 0.675321 -23.5399 -22.3027 20.5947
3627 1 Ar 10.8028 0.397276 0.392235 0.0261524 0.348801 0.833769 4.45744 -2.72539 -0.401004
33 1 Ar 12.9657 0.278349 0.32133 1.61737 -0.820832 0.0888755 -4.00523 -8.25922 4.17834
429 1 Ar 12.2071 1.09533 0.241402 -0.0448669 1.28126 -0.28178 27.7509 32.711 4.09184
433 1 Ar 12.2244 0.315676 1.48742 -0.514208 -0.699777 -0.0945935 9.73256 7.8276 3.45545
3631 1 Ar 13.3274 1.30316 0.0210681 -0.147213 0.0717547 -1.01986 5.69392 0.106216 -12.0658
34 1 Ar 14.2414 0.836001 1.0339 0.0414326 -0.263546 0.393995 -2.61642 -19.3921 19.4247
477 1 Ar 14.4481 1.39436 0.191803 -0.476244 -0.349692 -0.206177 9.5524 1.66056 -12.0367
473 1 Ar 13.0352 1.07198 0.987796 -0.629047 -0.246937 0.89595 3.44253 -22.6811 27.3996
79 1 Ar 14.9847 0.476698 0.422218 -0.762678 0.316955 -0.832159 9.17739 0.435399 -26.1337
43 1 Ar 15.7569 1.17026 16.7142 0.466788 0.371778 -1.15964 2.65456 29.356 20.9168
441 1 Ar 15.9086 2.24116 1.08913 -0.951284 0.0183333 1.43108 1.29308 3.73416 -5.6521
798 1 Ar 16.1598 0.249286 0.443834 0.102534 -0.467565 -0.499497 10.393 14.3849 -14.6505
83 1 Ar 16.5201 1.90696 0.113472 -2.65414 0.162678 -1.02464 2.76356 4.55989 -0.438014
402 1 Ar 0.272893 2.26452 0.980129 -0.229664 -0.108839 0.413934 -12.2717 -3.50414 -2.47055
442 1 Ar 1.56329 2.64262 1.1158 -0.52215 -0.0293554 0.241914 -6.75164 7.8335 -3.58685
481 1 Ar 0.919763 1.83955 0.281541 0.250157 1.12645 0.71496 2.75333 -7.02487 -20.4328
446 1 Ar 3.08723 2.39416 0.37799 -1.46202 -0.518741 -1.04767 -43.9955 -18.9016 -8.32999
3643 1 Ar 2.14038 1.88045 0.272739 0.485764 -0.389402 -1.6268 -5.96592 0.869322 -0.971576
12 1 Ar 3.2701 1.56381 1.12963 -0.657147 -0.302217 1.41165 20.1272 4.72446 -8.33136
453 1 Ar 3.77548 2.78809 0.913322 0.46566 0.449289 0.917864 47.8686 13.0166 23.0983
53 1 Ar 4.87194 2.5921 1.67147 -0.42217 0.341268 -0.800059 -34.3256 -16.8884 8.76193
490 1 Ar 6.56426 2.61151 16.6944 1.27769 -0.33095 0.614059 -14.4916 -0.328582 13.813
456 1 Ar 5.7 1.93593 16.7405 0.0881516 -1.18342 -0.635121 -2.57242 9.45685 -2.23958
60 1 Ar 7.53353 2.27824 1.22491 0.377719 1.70382 0.513705 -4.32033 -6.91812 -11.9493
95 1 Ar 6.22869 2.22303 0.905595 0.975215 0.473825 -1.03731 9.47924 16.2497 -20.6747
94 1 Ar 8.40388 2.60974 0.572365 1.14726 -0.375165 0.267322 -4.79115 27.4612 7.00064
58 1 Ar 8.58104 2.14028 1.55459 -0.181196 -0.467079 -0.979249 -2.70865 -2.37528 -13.0797
461 1 Ar 10.2606 2.41204 2.29244 0.314279 0.321833 -1.33125 15.7444 -22.5462 17.0409
68 1 Ar 9.52763 1.92738 0.532927 -0.882614 0.260034 0.682274 -35.8601 15.933 -28.6455
107 1 Ar 10.3279 2.59043 0.746666 -0.518535 0.763722 -0.244273 8.14361 7.9892 0.389841
69 1 Ar 10.6845 1.83222 0.0610353 1.12508 -0.752329 -0.5735 7.72062 -9.2026 4.96256
106 1 Ar 11.0634 2.89896 16.5789 -0.700711 -0.473887 0.514839 -6.20396 -15.5048 9.72032
67 1 Ar 11.4573 2.53416 0.705623 -0.254872 0.376846 -0.244283 3.36255 -1.7313 -2.2841
32 1 Ar 11.77 2.14172 16.6057 -0.885037 0.0347006 1.91394 34.9531 -8.82056 13.5407
73 1 Ar 12.7673 1.99182 0.808657 -1.50177 0.0723134 0.227306 -26.1915 21.121 -6.09056
110 1 Ar 12.3932 3.31796 0.562121 -0.236865 -0.946413 0.277902 16.5248 -20.6583 -6.30964
36 1 Ar 13.9013 1.78466 1.04327 -0.0378074 -0.0494772 -0.240592 -16.504 22.5921 -0.277914
3714 1 Ar 14.0262 2.2858 16.6376 0.227188 1.82528 -0.375572 -11.0258 -18.9839 2.98884
74 1 Ar 14.5248 2.73696 0.899201 -0.0326628 0.996817 -0.593207 -7.95361 -0.479755 -8.36695
44 1 Ar 15.2515 2.24987 0.136049 0.321334 -1.55031 0.495521 3.42205 -4.04805 6.56226
117 1 Ar 16.5545 3.09337 0.536202 -0.828178 0.966915 -1.40536 -28.371 -8.86215 3.51487
3683 1 Ar 16.0143 3.05377 16.3655 0.09988 -0.240196 0.722434 -9.23486 12.5922 54.6414
525 1 Ar 0.665968 3.49056 0.466752 0.191935 0.0833181 -0.256161 54.921 -3.54021 32.3459
120 1 Ar -0.0225804 4.22147 0.81985 -1.64078 -0.749076 0.218497 3.9874 -0.202743 4.56762
3724 1 Ar 0.70516 4.63051 16.741 2.28203 -0.0529029 0.901071 7.75771 -0.259107 11.1303
84 1 Ar 0.16482 3.73096 16.467 0.146099 -0.146149 0.504895 -17.2174 -4.24177 -32.9081
521 1 Ar 1.59044 4.43766 0.68961 -1.40097 -0.671948 1.27373 -14.9712 -3.78389 -8.43805
48 1 Ar 1.44144 2.73751 16.7663 0.291325 -0.0480695 -0.883149 3.06405 0.623836 -1.46848
485 1 Ar 1.74179 3.68549 1.42774 -0.236192 -0.273268 -1.16092 25.4993 -15.372 -0.258734
50 1 Ar 2.62609 4.38603 0.263091 -0.87804 -0.654656 -0.157285 1.82674 7.65577 10.6274
123 1 Ar 1.75337 4.80345 16.171 -0.75713 0.611419 -1.92562 4.18259 0.35995 11.8913
90 1 Ar 4.62336 4.33777 0.525151 1.91909 -0.384935 -0.794335 -11.4804 -8.03097 -11.1776
529 1 Ar 5.15742 2.68648 0.676229 -0.21759 0.0791986 -0.817981 9.59825 16.8335 -15.7661
131 1 Ar 4.73989 3.51601 1.29678 -0.258103 0.360661 0.830187 -13.0413 25.7923 -8.0841
136 1 Ar 6.04471 3.97038 0.744492 -0.441941 -0.120662 -0.380422 5.00803 -5.52523 -20.2157
894 1 Ar 5.72213 3.14717 1.40646 -0.954232 0.012955 -0.530339 23.4741 8.20546 5.68729
494 1 Ar 7.57966 4.17628 0.886293 0.455898 0.905991 -0.313037 -1.72374 7.72747 -1.80619
500 1 Ar 7.00344 3.23825 0.78396 1.16338 -0.853122 1.57967 -22.3742 -8.28991 -20.8275
533 1 Ar 6.7052 4.84622 0.298364 -0.377325 -0.87555 0.755166 -12.2697 -6.14502 -1.37038
537 1 Ar 8.46913 3.98103 1.84349 0.290127 -0.11314 1.83337 -36.5498 13.3832 1.86383
898 1 Ar 7.59883 3.32964 1.56996 -1.84953 1.06628 0.0187194 21.7583 6.9067 20.1907
144 1 Ar 8.51848 3.58519 0.808808 1.07889 -0.500074 0.727323 6.32021 12.0547 10.9141
101 1 Ar 9.4349 2.76409 1.29755 -0.200742 0.0853862 -0.377236 1.51526 -14.9911 -20.01
103 1 Ar 10.9285 3.49772 0.947892 -0.125727 -1.5086 1.1909 0.374273 7.53118 -2.46274
102 1 Ar 9.71007 3.74675 0.896128 -0.668133 0.323614 1.48004 4.67416 -5.86067 42.6489
72 1 Ar 11.8624 4.22956 15.65 -0.389956 0.485605 1.0026 6.812 -10.4811 3.10786
112 1 Ar 11.293 4.56536 1.3322 0.318251 -0.18025 0.742071 17.8203 4.55289 -22.0815
113 1 Ar 13.1636 4.07599 0.30206 0.0703382 1.13092 0.531631 -8.6633 3.27816 -10.3421
513 1 Ar 13.4097 2.72735 0.539245 0.877699 0.248848 0.80418 6.33003 20.9333 16.4103
155 1 Ar 13.8512 4.52451 1.13772 1.0337 0.213906 0.683181 -45.508 -8.37154 18.626
3716 1 Ar 13.6506 3.33485 16.49 0.0139291 0.399608 -1.96269 -12.5863 6.35939 -7.06392
115 1 Ar 14.1787 3.88596 0.463956 0.465955 -0.666651 -1.18151 15.2603 -45.3654 -13.5045
114 1 Ar 15.336 3.25203 0.47809 0.554435 1.12586 0.690194 1.84218 -3.99457 -0.496484
593 1 Ar 14.9664 3.78917 1.30805 -1.02412 -0.0164691 0.787246 -8.99421 11.9127 2.93946
200 1 Ar 15.9754 3.49589 1.47184 1.17099 -0.844885 -0.27932 -0.968576 -5.16038 -12.5176
124 1 Ar 16.5705 5.27333 0.605431 0.312154 0.315303 -0.933845 -12.069 -2.65574 4.22157
81 1 Ar 15.986 3.96043 0.129046 0.289334 -0.853812 0.179011 -0.0038825 15.7366 -2.11192
163 1 Ar 1.6008 5.50279 0.293875 -0.1449 -1.21006 0.171361 -2.11922 0.917309 -0.333164
157 1 Ar 0.728247 5.18686 1.2388 1.36818 -0.533654 0.779684 11.1261 2.98 -18.9743
561 1 Ar 0.542455 5.75435 0.146236 0.586273 -1.08564 1.39866 11.5624 3.18355 -10.7192
565 1 Ar 2.3366 5.07894 0.993541 0.73208 0.420487 0.394112 1.03669 11.7933 8.76753
128 1 Ar 2.46832 6.08062 0.801796 -0.447008 0.473068 -0.124443 -6.87195 7.0741 -8.02471
165 1 Ar 3.4283 4.99683 0.901397 0.96832 1.56122 -0.543877 -5.32019 -12.0852 -13.8783
491 1 Ar 4.24401 5.58484 1.14969 -0.590985 -0.808024 1.50329 -5.73016 26.7356 14.9935
133 1 Ar 4.71646 4.75328 1.45558 0.214942 -0.201778 1.28512 2.10986 -8.20045 18.3341
573 1 Ar 6.69897 5.15867 1.30263 0.147357 2.31711 0.863318 0.411781 -2.78718 6.25395
96 1 Ar 5.46768 4.95785 0.546475 0.120011 -0.0489368 0.175295 5.50362 -1.4255 -0.0761338
534 1 Ar 7.49158 5.51667 0.432208 -0.823059 -0.185459 0.2971 -1.26339 7.20935 14.4973
139 1 Ar 6.42711 6.22227 1.67035 -0.740802 -0.860672 0.182352 -2.40794 -21.1065 8.73058
3735 1 Ar 5.34925 5.74762 1.19615 1.91238 -0.321842 -0.570211 2.92531 8.20332 10.6921
539 1 Ar 8.48617 5.71685 0.30987 1.15211 0.433809 -0.97539 9.20407 -8.1343 -6.60875
541 1 Ar 8.89274 4.57859 1.11024 -2.3082 0.545745 -1.86581 2.53228 7.68723 -13.8181
145 1 Ar 9.92312 4.95586 1.23481 -0.501098 1.51546 -0.494149 1.69277 0.0771215 -1.9937
546 1 Ar 10.7589 5.67403 0.953665 -0.532439 -1.20959 -0.0576402 6.9466 -22.8605 12.2323
147 1 Ar 11.7101 5.13425 0.489371 -0.226696 1.53169 2.02481 -48.2703 7.43978 -5.05596
151 1 Ar 12.0535 5.51988 1.58646 -0.525513 0.0165085 0.186945 2.06267 -7.4203 -32.7463
189 1 Ar 11.4171 5.89534 16.6239 -0.653249 -0.756726 -0.255657 1.32268 -0.326694 -11.1814
153 1 Ar 12.4348 4.81134 16.5347 0.697862 -0.861515 1.04227 -3.00073 0.329516 -3.39109
591 1 Ar 12.4946 4.70359 0.857476 -0.465209 -0.560295 -0.70603 22.4488 -1.92185 12.4312
550 1 Ar 13.356 5.18094 0.164925 0.726072 0.718626 0.0676412 6.48779 -6.06911 3.2571
159 1 Ar 14.5151 4.84061 0.507109 0.627048 -0.120486 0.445037 35.543 29.5587 -32.1251
599 1 Ar 15.6052 5.74327 0.946431 -0.996776 0.564739 0.488679 -3.65654 -6.12479 -13.3019
596 1 Ar 14.042 5.5096 1.19778 -1.115 0.556191 -1.0676 -5.87031 6.74356 3.49241
121 1 Ar 15.4096 5.00111 16.6616 -1.70076 -0.179401 -0.371999 3.62106 -5.83372 -1.42175
160 1 Ar 16.3972 6.43578 0.147342 0.376177 0.783328 -1.87785 20.158 -2.88473 5.01331
605 1 Ar 1.24351 7.13292 1.1161 1.23498 1.31672 -0.57854 -19.1309 5.50286 3.25626
158 1 Ar 0.372377 6.46573 0.919006 0.502967 -0.442162 1.02452 11.7291 3.22729 3.3999
602 1 Ar 0.314769 7.9428 1.28192 1.13431 -0.560821 0.299081 1.46478 -9.2486 -3.80401
205 1 Ar 0.0699509 7.33215 0.319276 -0.594426 0.522765 0.936823 18.0503 17.8594 -13.3185
522 1 Ar 2.18101 7.35568 0.679919 0.283392 1.05763 0.660225 5.69288 -0.400594 -7.23188
608 1 Ar 1.0256 7.91721 0.417164 -1.38003 0.949534 0.258528 6.06308 -1.88366 1.02031
173 1 Ar 3.97204 7.14309 0.874418 -1.83816 -1.09671 -0.111928 -4.26887 -5.49237 10.5086
167 1 Ar 3.73449 8.08445 0.471815 -1.30277 -0.885894 0.507027 -13.1597 1.87744 2.47761
132 1 Ar 3.10009 7.23505 16.6877 -0.260787 0.382291 0.517167 -13.0095 38.2863 48.5028
130 1 Ar 5.34348 6.34602 0.22472 1.34224 0.642963 1.07708 -2.11504 -3.09945 -3.5845
3736 1 Ar 4.65672 6.55754 1.4784 0.093457 -2.10836 0.039481 -11.5696 -13.5487 16.2606
174 1 Ar 4.59371 7.37562 0.0959821 0.45572 0.262798 0.549155 2.04635 2.1029 -15.8246
3734 1 Ar 6.05645 5.62388 16.6201 0.619273 0.0869617 0.462735 -9.75838 -6.20564 -14.4638
177 1 Ar 6.42478 7.02852 0.223533 -0.551437 -0.199821 -1.21943 1.59761 0.950791 1.12041
179 1 Ar 7.22607 7.00989 16.2019 0.619292 0.335324 -1.43916 4.65152 -2.46636 -1.55802
180 1 Ar 7.25204 6.80986 1.37374 0.41213 1.21551 1.02029 5.7889 46.048 -13.3003
183 1 Ar 8.7131 6.63251 0.727693 -0.94799 -0.983472 -0.944416 -1.4782 0.990301 9.52556
219 1 Ar 8.30216 7.62851 0.642218 0.974123 0.694676 0.0778457 0.147777 -2.59883 16.2045
148 1 Ar 9.63911 6.0118 0.56206 1.40161 -0.864977 -0.567621 -8.92577 -11.7016 11.0551
585 1 Ar 9.57317 6.94976 1.20276 -1.05532 -1.69855 -0.715645 -30.6975 -17.0751 -0.526006
225 1 Ar 9.55591 8.04589 0.74897 -0.283666 0.58567 -0.191466 7.16286 -19.5213 2.97662
181 1 Ar 10.4584 6.58678 0.683932 1.33808 -0.553819 -0.0208756 17.7923 9.96774 -27.3922
187 1 Ar 11.5932 6.30134 0.722154 -0.337682 -0.384826 0.0169155 9.08489 11.8373 18.8961
586 1 Ar 10.4165 7.42756 1.20221 1.21626 -1.08233 0.539823 15.201 55.2036 14.5703
191 1 Ar 12.4896 5.77713 0.314941 0.52684 0.107045 -0.490826 1.30256 10.1205 0.10404
590 1 Ar 13.5113 6.18683 0.432635 -0.636102 -0.87085 -0.27412 6.51221 9.22212 6.00363
190 1 Ar 12.3347 6.97993 1.45298 -0.468606 -0.476368 -0.375809 14.7344 -9.96211 4.96281
3791 1 Ar 12.4274 7.73571 0.053367 0.0895866 1.67157 -0.588503 -14.3089 -5.8285 10.1219
3760 1 Ar 14.4132 7.36749 0.302698 0.482821 -0.896315 -0.845422 6.39804 0.958845 0.660139
3793 1 Ar 14.583 6.04012 0.0227947 -0.747552 0.180965 -2.38765 -15.5391 12.1102 20.5825
164 1 Ar 15.2315 7.87244 0.994462 -0.705274 -1.03024 -0.217121 6.28773 -3.95565 -6.02843
199 1 Ar 15.29 6.7967 0.632633 1.25427 0.97038 -0.108267 -25.4024 -33.531 26.9215
3799 1 Ar 15.7536 7.34067 16.7971 1.44871 1.5825 0.487684 36.2753 32.8201 -21.2481
645 1 Ar 1.40015 8.25767 1.39771 -0.159561 -0.251329 0.350943 -8.48991 -3.97362 8.26013
638 1 Ar 0.384496 8.91031 1.66523 0.546144 0.099672 0.51165 6.96544 10.2425 -3.06249
3808 1 Ar 0.273513 8.62074 0.19678 -1.41265 -0.143105 -1.09841 1.3765 16.1296 7.93645
609 1 Ar 2.91005 7.81728 1.38914 1.36293 0.039621 0.995937 -3.35144 -1.87778 -10.3479
207 1 Ar 1.98389 8.49678 0.535666 0.861964 -1.6314 -0.551373 1.91738 -20.0803 -6.79028
170 1 Ar 3.75729 7.81617 16.1725 -0.107748 0.292885 -0.314898 14.1451 9.20746 0.978009
210 1 Ar 2.92735 8.83897 0.415343 -0.82423 -0.640733 -0.0979114 21.87 7.20154 5.10719
3772 1 Ar 4.52589 8.45018 16.7209 0.611535 -0.244198 0.801583 28.0023 3.80944 7.40076
175 1 Ar 5.31208 8.90205 1.22132 -0.00628475 -0.464995 0.349138 21.3522 -67.1529 20.0082
3774 1 Ar 6.03596 8.15633 0.910931 0.101513 0.198262 1.18799 5.8404 -4.38626 0.527569
215 1 Ar 6.94773 8.86313 0.822732 1.2821 0.0422851 -0.259649 -4.30073 9.35694 0.186511
178 1 Ar 6.27222 7.16537 1.32009 -0.617741 -0.132176 -1.11243 -4.70805 21.2334 -13.9051
618 1 Ar 7.30518 7.86501 0.808411 0.6655 1.17907 0.846536 -10.5938 -7.00499 -3.1496
184 1 Ar 8.66775 8.57733 1.0617 0.804367 0.318542 -1.58404 31.05 3.72487 -30.9147
621 1 Ar 6.83137 8.2243 1.72782 0.759476 -0.191091 -0.374643 -11.5005 19.558 -28.4661
582 1 Ar 10.5046 8.54318 0.919713 -0.841844 -0.274843 -2.27147 0.437951 -18.4553 -10.9844
625 1 Ar 9.58496 9.06277 0.647441 -0.675934 -0.133395 0.407561 -0.65496 18.1735 -1.32104
188 1 Ar 10.3765 7.65446 16.5758 -0.797201 -0.617881 0.0131559 0.76878 -7.10479 2.48273
192 1 Ar 11.3037 7.01043 1.47361 0.257711 -0.759874 -1.07786 -1.92557 -4.24783 12.8655
3836 1 Ar 11.5615 8.53624 0.636161 0.259881 -0.186085 -0.837229 -8.20824 7.52796 -22.3267
3796 1 Ar 12.2482 7.96546 1.10545 0.0735353 -0.0801555 0.447366 15.9101 -3.87432 8.20622
195 1 Ar 13.3185 8.12934 0.663075 -0.201512 0.603557 -0.88717 -6.28505 11.2323 27.789
230 1 Ar 12.6699 9.00114 1.04529 0.642303 0.268423 -0.19415 13.8196 -25.6514 3.09365
3790 1 Ar 13.5127 7.13499 1.36304 0.439841 -0.219657 -0.157213 6.74523 2.20645 -30.3745
3800 1 Ar 14.2313 7.67414 15.1996 0.242177 0.797297 0.793643 23.6506 -2.48407 8.96318
3795 1 Ar 14.5828 9.49406 1.02553 0.933544 -0.321213 0.00975649 17.6073 18.9213 5.87842
197 1 Ar 14.429 8.55884 0.618867 -0.0320792 0.440204 0.157295 -11.0923 -11.1632 6.72323
237 1 Ar 13.6532 8.73567 16.7094 0.407697 0.252621 -0.693304 -2.6679 12.7389 -17.6542
634 1 Ar 14.7286 8.53145 1.6973 -0.413972 -1.11215 0.423093 12.4183 36.9654 -30.4385
198 1 Ar 14.3736 8.04503 16.2092 -1.39368 -0.428207 -0.0847823 0.18341 -20.7256 6.40758
201 1 Ar 16.2715 8.17754 0.640187 0.248182 -0.796593 -0.18265 -15.1586 -11.8673 3.52733
236 1 Ar 16.1623 8.52206 1.67863 -0.458721 -0.765152 0.505242 -0.0784956 -3.98503 5.3024
3803 1 Ar 15.5984 8.93883 0.896138 0.0727818 -0.577086 1.42266 -21.8554 2.28068 -0.607225
204 1 Ar 0.388517 9.68819 0.0711174 0.846315 0.268659 -1.17784 -4.66299 -7.9116 0.129125
243 1 Ar 1.34246 9.36342 1.92414 0.0506148 -0.162171 -0.444456 -1.94791 -6.41186 -5.39161
279 1 Ar 0.591906 10.2688 0.955915 -0.548844 0.111802 0.261593 0.975168 -7.67059 -10.8272
242 1 Ar 1.43771 9.95892 0.152396 1.18875 -0.101879 -0.431997 12.379 25.4695 -22.7949
208 1 Ar 1.22206 9.14902 0.623944 -0.659578 0.929308 0.374082 -28.9508 -27.3914 35.3846
245 1 Ar 1.671 10.9028 0.509385 -0.499106 -0.297155 0.647269 5.43562 8.46779 7.85413
247 1 Ar 1.5395 10.3601 1.54063 1.01806 0.476887 0.325593 14.259 13.3242 -69.3057
606 1 Ar 2.25095 8.78425 1.78121 1.31705 -0.354455 2.89634 15.1264 -0.200861 -8.18519
211 1 Ar 4.33007 9.23238 0.755174 -0.290372 -0.433263 0.250942 16.2542 -40.6836 9.47769
612 1 Ar 2.47026 9.79943 0.271118 -0.805923 -0.371016 1.02268 1.923 -5.42003 1.62492
689 1 Ar 4.06831 10.2485 1.65351 0.499864 0.0174037 1.08345 5.44315 -12.4799 5.51535
213 1 Ar 3.57652 9.74034 0.430878 1.14541 0.7486 -1.57841 -34.7004 27.5883 -16.3988
653 1 Ar 5.08026 9.79764 1.09774 -0.121092 0.303506 0.605877 -4.02303 63.23 17.193
3856 1 Ar 4.49234 10.4296 0.597425 0.173609 1.40882 -0.782309 -0.735044 13.5263 -16.3756
3815 1 Ar 5.37424 9.97041 0.0765143 0.208787 0.443526 -0.627717 30.7308 16.4918 6.12006
217 1 Ar 4.47327 9.69547 16.603 0.0648239 0.608767 1.01535 -36.674 -0.64168 -12.8927
651 1 Ar 5.67097 8.9172 0.239847 -0.407228 -0.203878 0.881737 -11.0738 -4.83818 -5.82354
297 1 Ar 6.09193 9.65156 0.793053 0.636265 -0.142167 -1.27596 7.57231 -0.567613 11.8164
3820 1 Ar 6.65793 9.36967 16.5892 1.03715 -0.799579 -0.160827 -6.79454 7.83039 13.6502
223 1 Ar 8.12954 9.59058 0.841534 -0.11262 0.0242592 1.24665 2.56651 -0.441247 0.124571
218 1 Ar 7.05571 10.0134 0.78926 -0.688014 0.601593 -0.95355 14.2704 5.12316 -0.835725
224 1 Ar 7.92242 8.75882 1.64215 2.15431 -0.47527 1.37851 -29.3494 8.57475 21.2697
669 1 Ar 10.7287 9.57281 0.885248 -0.598706 1.42646 -1.01654 -5.38146 12.2505 -17.7384
665 1 Ar 8.97275 10.6234 0.378779 1.0317 -0.698992 -0.588234 -2.88479 3.78987 12.5896
626 1 Ar 9.83649 10.1274 1.05083 0.214454 -0.339192 0.8382 -5.78508 3.75978 -1.3458
628 1 Ar 8.9345 9.55327 1.58204 1.03446 1.70594 0.275174 -11.3472 -20.4354 -12.0808
267 1 Ar 10.7767 11.1794 1.26803 -0.705732 0.265534 1.64517 -2.7499 -10.944 5.19355
672 1 Ar 11.5437 9.21442 1.38496 1.07207 -1.02312 -1.69445 25.6562 0.158584 23.2616
194 1 Ar 13.3883 10.1142 1.20222 1.5189 -1.46306 1.19342 1.34073 -4.39079 0.9706
3871 1 Ar 12.1622 9.83344 0.870658 -0.857134 -0.235578 0.264776 -12.678 36.3799 -6.20903
233 1 Ar 14.8361 9.61844 16.8001 1.35945 -0.0668293 1.1827 3.33977 -14.3459 2.39393
234 1 Ar 15.8129 9.94484 0.637847 0.219807 -1.14708 -0.473913 -56.9436 16.8917 -39.9692
240 1 Ar 16.5305 9.41223 0.969918 0.346635 0.213852 0.578157 49.4714 -27.3912 16.9849
717 1 Ar 16.2151 10.3984 1.42285 0.570824 0.0529231 0.0649738 13.0035 8.32679 25.5337
282 1 Ar 0.93007 12.6457 0.611022 -0.0832726 0.218008 -0.58792 -6.96977 3.73554 4.66247
212 1 Ar 2.59038 10.6602 1.20782 0.579693 -0.743897 -0.153971 0.492115 -5.91303 0.812456
248 1 Ar 0.877803 11.5343 0.979555 0.614509 0.41787 0.0142808 17.4628 -13.2235 -16.6986
287 1 Ar 1.91061 11.4826 1.42631 1.20756 -0.166464 -0.565485 -0.790087 -2.64032 6.14854
649 1 Ar 3.65446 10.8864 0.963049 -0.374472 0.0502405 -0.321548 -18.4269 16.4756 -2.89567
331 1 Ar 2.75786 11.6855 0.816375 -0.0511715 -0.293142 1.91938 7.90033 -8.82243 1.86486
327 1 Ar 4.50101 12.9313 16.1476 -1.72091 1.2752 -0.566868 29.4156 20.4129 44.2189
250 1 Ar 5.72676 11.7693 1.38487 0.573456 0.217689 0.035493 0.370203 -4.90569 6.44349
696 1 Ar 4.57801 11.7332 0.170066 -0.938168 1.61992 -0.0326763 -28.3992 11.217 4.55419
264 1 Ar 7.28969 11.5509 1.73726 -0.246261 1.37273 -0.7558 -26.4397 2.2751 6.24134
257 1 Ar 6.51441 11.2509 0.82489 -0.541699 -0.69616 -0.825034 8.1596 2.20692 10.8079
301 1 Ar 8.1229 11.634 1.19645 0.547 -0.576513 1.33507 30.9021 12.5571 -2.96868
662 1 Ar 9.57072 11.7485 1.60164 -0.297013 0.014024 0.0109819 -6.46517 5.46491 -6.17945
259 1 Ar 7.9863 10.6145 1.01514 -0.584249 -0.792035 -0.000110403 -1.90496 9.91175 -15.5442
258 1 Ar 7.60896 11.3328 0.343454 -1.53146 0.454757 -0.337854 9.5645 -26.0726 -16.9705
668 1 Ar 9.91298 11.2127 0.313185 -0.341977 0.203827 -0.255804 -11.5878 -7.23565 29.9711
3867 1 Ar 9.41989 11.5503 16.295 0.535946 0.560922 2.15136 -10.3101 13.1527 -18.7532
3907 1 Ar 10.685 10.5183 0.309903 1.09116 -0.266727 -0.0916597 -4.30913 -0.357088 2.47651
269 1 Ar 11.1324 11.4237 2.23576 -0.164824 0.236888 0.601723 -14.7617 2.96372 3.51198
272 1 Ar 11.7735 11.1669 0.661414 0.469437 -0.245762 0.494187 -5.40472 1.45859 -0.0142829
3866 1 Ar 11.6771 11.9031 16.6324 0.800452 -0.431475 -0.212936 -6.13626 -9.30339 -10.6089
270 1 Ar 12.3157 11.4711 1.53932 -0.0786966 -0.0417266 1.0415 -12.6675 20.056 11.0976
353 1 Ar 13.4949 11.666 1.48288 1.48195 1.70896 -0.783105 -13.6383 8.89326 11.3081
3949 1 Ar 12.7221 11.8701 0.231156 0.789542 -0.646106 0.0675652 6.11629 -6.15242 5.00157
273 1 Ar 12.9447 10.9874 0.910628 -0.77738 1.69727 -0.0198494 -2.22206 -2.3842 -30.4628
3916 1 Ar 13.8487 11.7616 0.468532 -0.0652497 -0.971404 -0.422151 4.29876 -5.83056 11.1566
315 1 Ar 14.5249 10.7158 0.704193 -1.46448 -2.33861 0.362781 0.664589 -5.6649 -0.419203
317 1 Ar 14.4901 11.5785 1.34938 -0.16509 -1.05257 0.326049 20.5334 -3.33542 -6.83433
275 1 Ar 15.3189 10.5085 16.6171 0.091212 -1.40942 0.644473 3.36699 -14.7441 9.79054
720 1 Ar 15.1065 10.0018 1.91053 0.0554746 0.164257 -1.03218 11.0037 1.3202 -2.99849
319 1 Ar 16.5932 11.2819 1.01982 1.54309 -0.346846 -1.31631 2.62451 2.37971 -14.1095
3884 1 Ar 15.1989 11.9734 0.447022 0.841256 -0.553408 -0.626458 -1.54656 7.51641 12.6906
284 1 Ar 1.52578 12.4578 1.7457 -0.69333 -0.362344 1.74444 -22.3107 -16.8266 -4.29461
328 1 Ar 0.964866 13.8005 0.774557 -0.264726 1.03324 1.15191 -2.41363 -18.897 28.7465
365 1 Ar 1.12002 14.2306 1.79788 0.640335 0.729315 0.0592602 -12.8779 1.40926 -5.26783
285 1 Ar 2.91673 13.2047 0.830585 -0.152463 -0.444148 1.10551 -9.55963 -1.88766 -40.0571
725 1 Ar 1.89155 12.301 0.712671 0.383713 0.0810358 0.0865352 5.61829 -0.462645 -6.56268
766 1 Ar 1.80763 13.1793 0.0106222 0.562214 -0.897363 0.661502 -19.2593 -11.2421 21.0187
732 1 Ar 3.7018 13.8982 1.232 0.568239 0.652008 1.28412 14.8967 14.6238 -28.9188
1171 1 Ar 1.76935 13.3116 1.26968 -0.695201 1.24971 -1.94895 13.5206 15.1329 -8.14285
692 1 Ar 2.58083 12.4354 1.5297 0.154869 -1.68908 -0.856281 -0.725502 0.959471 9.98229
693 1 Ar 6.07688 12.0024 0.189752 0.202433 -0.98063 0.44599 27.5779 -10.3963 -2.92797
729 1 Ar 5.30093 12.6146 0.148228 0.777731 1.0962 1.21075 -16.2788 15.5446 -0.719961
694 1 Ar 7.0323 13.2183 0.907905 -0.228933 0.586815 0.432035 4.71592 4.05153 -9.81713
295 1 Ar 7.10185 12.1362 0.635361 1.50711 -0.0553426 0.679007 -13.2403 23.8609 1.11902
302 1 Ar 8.0557 12.801 0.524429 0.102857 -0.552142 -0.1293 13.189 -14.7398 17.297
700 1 Ar 5.98534 12.7006 0.996956 -0.0113715 0.4937 0.468131 3.76812 14.9201 -1.63177
3864 1 Ar 8.70746 11.7443 0.253814 1.14001 -0.608789 -0.706488 -3.57084 8.10732 9.43269
266 1 Ar 9.17853 12.6808 16.458 -0.506196 -0.509216 -0.557079 -1.13704 -9.02591 3.83838
3903 1 Ar 8.78891 12.5633 1.35978 -1.12492 -0.261796 -0.308274 12.4461 -13.1659 -27.3781
666 1 Ar 10.7953 11.8194 0.46831 0.235113 -0.0810246 -0.787869 6.38639 4.05331 4.24377
707 1 Ar 9.66001 12.3381 0.54612 0.638955 0.614379 0.166572 4.80926 -4.29653 6.23599
309 1 Ar 10.4841 12.3351 1.79157 0.279357 -1.07895 0.593627 -3.26164 0.405495 -9.90679
308 1 Ar 10.8736 12.8388 0.634164 -0.833267 1.07015 -0.452867 8.63109 -9.76057 5.67575
3912 1 Ar 12.6232 13.3014 0.200583 -0.821503 -0.0217718 -0.377559 -7.39227 5.12432 -1.27379
312 1 Ar 11.5204 12.2714 1.60147 -0.44687 0.474429 0.352564 3.41198 -1.21003 9.25971
3947 1 Ar 11.9524 12.4601 0.686324 -1.07411 -0.618964 0.308393 2.2307 -2.1429 -13.734
3951 1 Ar 12.1212 13.2455 1.32842 0.291405 0.242505 0.34663 -2.35527 22.0539 -2.30543
310 1 Ar 13.3654 12.8326 0.767447 -0.0379092 1.59593 0.0682435 -11.1228 22.8496 43.4546
356 1 Ar 13.3731 13.4717 1.7418 -0.168002 -0.227414 1.53861 -8.67458 -4.47008 -8.01704
360 1 Ar 14.0046 12.6171 1.53365 -0.354997 1.22172 -1.12334 10.0386 -19.9588 -10.1788
3920 1 Ar 15.2921 12.9312 1.08279 -0.118222 0.863944 1.59834 -1.90684 -9.94505 16.1903
354 1 Ar 14.3158 12.7395 0.357903 0.567525 -0.664839 -1.40899 39.9687 6.41991 15.8101
357 1 Ar 15.8943 13.8221 0.884728 0.0141042 -0.606656 0.85099 0.278581 -11.0642 -14.0732
322 1 Ar 16.6167 12.0062 0.155049 -0.859543 -1.11619 1.46196 -3.072 12.3117 8.80712
321 1 Ar 16.7636 13.0901 0.775117 0.421123 -0.0157118 0.0276308 10.9087 1.94718 -16.2359
765 1 Ar 16.7448 15.0388 1.21514 0.152559 -0.0379251 -0.813169 -4.03905 0.925526 4.19449
368 1 Ar 0.864737 14.7885 0.56341 -0.612469 -0.0631528 -1.47201 7.96025 21.8887 -3.50193
768 1 Ar 1.7108 15.0164 1.29655 0.696727 -0.85279 0.173314 -6.61693 -9.23418 -2.82747
367 1 Ar 2.64891 14.2708 1.28799 -0.341864 -0.532818 1.22196 15.381 4.37877 -3.71756
371 1 Ar 3.05206 14.5495 0.0977262 -1.06672 1.04406 0.344508 -5.12675 -15.4406 2.64939
690 1 Ar 4.60086 13.2949 0.479423 -0.527689 -1.3653 1.31378 -11.951 3.48619 10.0694
336 1 Ar 4.11415 14.913 0.771299 -0.730307 0.64642 0.725637 -2.24312 -7.01322 0.219792
733 1 Ar 6.07401 13.9232 0.815328 2.12456 -0.260416 0.384895 -7.55332 7.4588 -16.7399
736 1 Ar 5.1254 15.3825 1.58778 0.453661 0.748608 -0.748 7.13412 -12.253 -29.4859
740 1 Ar 6.84157 14.0943 0.138744 -1.00642 -0.954387 -1.00611 25.8341 -1.43364 9.81555
335 1 Ar 5.12876 14.4342 0.817504 0.0816901 0.851069 1.0258 14.6719 6.64371 -37.7849
339 1 Ar 6.37964 13.5193 1.6554 0.14654 0.241238 2.51423 11.9104 -20.6138 34.238
338 1 Ar 7.1728 15.2497 0.536643 -0.495459 0.232736 -0.957928 1.69737 -12.953 15.0736
343 1 Ar 8.63586 14.3168 1.48069 0.817528 0.628244 -0.276068 -19.5168 -9.06574 -24.9591
3944 1 Ar 8.57562 13.5754 0.0623049 0.538341 -0.798498 0.802891 3.80016 -0.0479997 -17.0795
3943 1 Ar 8.9048 14.5345 0.293942 0.0380311 0.90243 -0.209493 -0.945274 -19.4427 -9.40463
305 1 Ar 9.32459 13.4133 0.722248 0.680918 -1.6139 -0.302966 15.2194 -0.0315366 11.1324
345 1 Ar 10.5812 13.8431 0.70765 0.0817807 -0.872099 -0.0655779 -22.9855 15.4583 -9.65694
385 1 Ar 11.54 13.0665 16.5998 -0.134728 -0.26177 0.345523 -2.52473 3.21632 0.794957
307 1 Ar 11.0609 13.419 1.47242 0.285731 0.0274653 0.508364 13.0612 -7.85082 19.3361
348 1 Ar 11.5972 14.0872 0.545218 0.613094 -0.37473 -0.920285 12.0205 -6.89905 15.1261
393 1 Ar 13.6649 14.2919 0.429312 -1.14897 -1.25035 0.734825 -0.349788 0.411639 -12.3126
350 1 Ar 12.6553 14.2028 0.972947 -1.51063 -1.97527 0.311809 8.9187 -30.7861 77.9744
391 1 Ar 14.4604 13.5961 1.2027 -0.673441 0.48635 0.219831 -12.557 -4.88679 0.361705
4000 1 Ar 14.92 14.0081 0.32153 -0.0414473 -0.355878 1.33521 -3.62377 -0.17258 2.16916
39 1 Ar 14.7857 14.6049 1.21707 0.955016 0.727564 0.348481 -1.69704 -11.3596 7.86939
758 1 Ar 16.7225 14.3341 0.400169 -1.25442 1.45988 0.484834 3.77102 -16.0996 14.613
400 1 Ar 14.562 15.1304 0.0950061 0.13605 1.20782 0.439803 -4.32564 14.6429 14.5922
7 1 Ar 1.60722 16.4395 1.19626 0.706403 0.463072 0.919591 -6.43936 37.5458 9.65294
3 1 Ar 0.691388 15.8274 1.11613 0.98998 -0.116743 -0.162664 1.49345 -4.77704 1.84578
761 1 Ar 0.484021 0.0743541 0.975282 0.411094 -1.94541 2.63407 -3.27688 0.540052 4.32237
405 1 Ar 2.40182 15.8593 1.40226 1.62 -0.0347591 -0.478437 -15.9513 3.60086 27.4506
762 1 Ar 2.51043 15.2066 0.640057 -0.535515 -1.36411 0.468964 -14.7747 1.46687 2.40995
409 1 Ar 2.73333 16.3829 0.555474 2.01837 0.315396 1.9925 4.41137 20.2825 20.2758
770 1 Ar 3.34156 15.7215 1.20466 0.760613 1.16203 0.573655 34.8665 -9.0634 10.992
11 1 Ar 3.79432 16.68 1.44381 -1.19144 1.16135 0.193523 4.50648 1.08337 -5.08801
370 1 Ar 3.36683 15.5404 0.212188 0.457821 0.520414 -0.574648 24.0094 8.32289 -25.862
773 1 Ar 4.27763 15.9593 0.708923 0.0627344 -2.06637 -0.560221 -9.63788 10.3558 11.5228
373 1 Ar 4.86059 14.5868 16.4483 -1.67537 -0.756496 0.0605081 1.30363 1.75551 6.61728
734 1 Ar 6.07422 14.9724 1.00298 -0.725047 -1.54791 -0.0792751 8.08882 17.3197 -2.79112
3575 1 Ar 5.30978 15.5114 0.48097 -0.554005 2.27497 -1.37115 7.17241 -2.20431 5.37713
334 1 Ar 6.37731 15.7117 16.7899 -0.889292 -1.2406 -0.023365 -25.7046 -2.35047 -1.74748
380 1 Ar 6.30563 16.1449 1.04354 -0.0881795 0.108573 1.59534 -6.30021 4.92478 -5.38743
3979 1 Ar 7.95261 16.1666 1.07429 0.372432 -0.0558234 1.24159 -1.33393 2.96133 -0.912314
19 1 Ar 10.2094 16.5573 1.83299 -0.552977 -0.275311 0.806678 -9.14055 -28.9956 -27.6728
779 1 Ar 9.68471 16.1 0.714703 1.3611 1.26432 -0.102229 -2.32741 -2.89854 0.0104673
381 1 Ar 10.6397 15.7566 1.13898 -0.699135 -0.386999 -0.0762518 6.49646 12.2801 22.2064
347 1 Ar 11.8352 15.1297 16.4503 -1.04126 -0.189759 -0.730923 -7.29344 -2.70556 15.2294