ITEM: TIMESTEP
4000
ITEM: NUMBER OF ATOMS
4000
ITEM: BOX BOUNDS pp pp pp
0.0000000000000000e+00 1.6795961913825074e+01
0.0000000000000000e+00 1.6795961913825074e+01
0.0000000000000000e+00 1.6795961913825074e+01
ITEM: ATOMS id type element x y z vx vy vz fx fy fz
401 1 Ar 0.686364 1.40557 1.19531 -0.100873 -0.674366 0.144397 -31.5672 -32.3215 -16.9425
798 1 Ar 0.134907 0.777553 0.440884 0.14528 -0.234175 0.648872 0.129146 -5.50395 -2.3872
761 1 Ar 1.09326 0.305953 0.670746 0.731156 -0.276023 -1.65026 -11.816 1.96005 2.52132
412 1 Ar 1.74948 1.14954 0.466221 0.123201 0.518593 0.567777 7.09089 -18.2193 12.1596
49 1 Ar 2.69823 0.857274 0.203641 1.77984 0.0576749 -0.504969 5.37192 -10.4335 -14.3497
3652 1 Ar 2.69313 1.11862 1.24913 -0.0149244 0.411485 1.23038 -36.5691 17.8688 19.6159
7 1 Ar 2.16477 0.143109 1.03196 -1.22078 0.384402 -1.52667 -13.9097 26.3668 -10.0171
3607 1 Ar 1.86092 0.0626243 0.0365201 2.13067 -0.356321 -0.0749188 11.9393 0.0756159 -13.8775
93 1 Ar 3.55017 0.954612 0.808829 -1.29589 0.583119 -0.189703 7.91566 10.2212 51.5067
410 1 Ar 4.49666 0.740927 1.17145 -0.0923756 0.496476 0.97701 -24.5189 15.063 -5.57041
457 1 Ar 5.45818 1.09229 1.1721 -0.778724 0.999392 0.516322 16.9126 -2.58573 -18.7177
17 1 Ar 4.81992 0.00673436 0.0602895 0.159533 0.462773 0.342089 -14.8919 -3.57346 10.9044
459 1 Ar 6.06915 0.252493 0.368814 0.266497 0.0464248 -0.679575 0.688368 43.2529 -16.9619
414 1 Ar 4.80019 1.11899 0.2887 -2.01708 0.905694 0.371567 -1.2103 13.2996 -18.2311
417 1 Ar 7.14485 0.318573 0.780896 -0.335245 0.411031 0.275266 -6.87376 -4.22317 1.1947
1180 1 Ar 6.20932 0.161966 1.37974 0.803989 1.3163 0.0271822 -1.24536 -27.4682 -6.3306
59 1 Ar 6.75371 1.23294 0.470497 0.660926 -0.665997 0.0897823 -0.870617 4.46623 18.2072
18 1 Ar 8.71877 0.0824613 1.08262 -0.45879 0.0757827 1.14852 -7.24218 -1.23858 4.00182
379 1 Ar 8.99456 0.772188 0.351106 0.456256 -0.267196 0.0751823 -6.04075 5.02616 -2.53924
24 1 Ar 9.06256 1.10534 1.36182 -0.685901 0.107585 1.02939 6.99716 -2.37352 5.5546
64 1 Ar 7.96196 1.05242 0.742223 -0.591413 -0.772558 -0.867134 -3.86242 -6.67464 4.65605
69 1 Ar 10.5378 1.11264 0.618923 -0.456178 -0.842332 2.2633 27.7046 2.32665 -8.4454
779 1 Ar 9.87286 0.300592 0.688199 -0.393302 -0.469506 0.928544 0.0378254 -2.33067 -2.86504
31 1 Ar 11.9228 0.570105 0.384739 -1.80208 0.463562 -2.25848 15.0567 11.0329 -5.19648
3627 1 Ar 11.0116 0.162404 0.586909 -0.622705 0.0561863 0.485915 1.47714 4.4464 8.99545
426 1 Ar 11.5882 0.699991 1.44331 -0.0487726 0.811419 -1.08676 -7.40351 -18.5546 -18.0737
33 1 Ar 13.3183 0.384475 0.179063 0.250746 0.00446507 0.982849 -5.5005 1.45856 7.62276
34 1 Ar 13.7316 0.691211 1.21656 -0.924807 1.21482 1.18512 2.80259 -10.1088 -4.73483
473 1 Ar 12.7855 1.29592 0.798063 1.3186 1.18625 0.249887 4.58705 -11.074 7.02879
79 1 Ar 14.4461 0.520491 0.284796 -0.636221 1.65256 1.25051 -5.7924 -22.715 13.0667
437 1 Ar 14.8552 1.27449 0.850918 -0.576294 -0.346149 0.498088 14.5606 16.7824 -3.10055
434 1 Ar 15.8893 0.944263 0.32995 0.544062 0.780906 -0.302644 -13.3031 10.286 -8.00813
439 1 Ar 16.2701 1.16761 1.23758 -0.890238 -0.854872 0.299669 13.4723 28.6521 5.28447
442 1 Ar 1.26112 2.0183 0.677512 0.544563 0.609012 0.193278 12.9853 33.481 -15.1993
449 1 Ar 2.20731 2.12456 1.41085 0.0511737 0.380585 0.246646 -0.572612 -2.1002 -6.34345
446 1 Ar 2.69257 1.94263 0.397254 -1.11817 -1.28983 -1.13185 -5.27847 -9.32684 0.105907
489 1 Ar 2.97246 2.94415 0.296743 0.396772 0.921848 1.68201 -10.4511 15.5487 5.92472
453 1 Ar 3.86324 2.85134 0.948147 -1.41273 0.122568 -1.40845 -4.00303 -4.27313 2.05655
91 1 Ar 3.81283 1.91853 0.475274 0.385522 -1.43498 -0.755777 0.773348 -14.0726 7.95949
413 1 Ar 4.7854 1.90188 1.07232 -0.595532 -0.67771 -0.819977 -14.4733 -0.493293 5.69182
15 1 Ar 4.78283 2.25144 0.020082 -0.716487 1.67372 -0.620732 4.94441 8.12054 17.5886
529 1 Ar 5.57641 2.54506 0.796635 -1.40556 1.50351 0.703099 1.94256 12.9864 -18.0294
490 1 Ar 6.33823 2.81395 0.0770267 -0.0965002 -0.647377 1.85057 -7.82043 -12.8693 -7.59799
95 1 Ar 6.56064 2.10731 0.975709 1.59513 0.371945 1.02966 -1.52727 13.1618 1.94639
458 1 Ar 8.65442 1.82961 0.615076 0.636921 2.45325 0.35394 6.83707 3.71334 -11.1208
94 1 Ar 8.68151 2.99133 0.612992 -0.316295 1.53965 -0.0429331 2.9388 8.26886 -5.89372
54 1 Ar 7.78326 2.45276 0.767217 2.03128 0.322467 -0.652113 -12.1556 -3.21606 4.48165
25 1 Ar 10.3023 1.84539 1.44348 0.163198 0.13948 -0.711262 -13.1944 11.677 -24.7609
65 1 Ar 9.70553 1.6046 0.359252 0.192877 -1.12441 0.0704863 -15.4264 12.0279 -6.35622
68 1 Ar 9.45427 2.41771 1.08073 -0.361067 0.564253 0.10029 -11.4599 -9.69848 -2.79093
107 1 Ar 10.3682 2.866 0.889236 -2.22627 -0.077667 0.071309 6.3126 2.32537 -3.51706
61 1 Ar 9.67175 2.98205 0.00946636 -0.088758 -0.677851 -0.794934 -6.95415 -11.0181 2.04029
27 1 Ar 11.6437 1.56674 0.737899 0.257968 0.476802 -1.3172 -5.28106 4.22367 1.16631
67 1 Ar 11.4594 2.76174 0.541254 0.0657182 0.467882 -0.100098 6.69244 3.11278 -3.79119
3663 1 Ar 10.7219 2.08954 0.231906 0.224642 0.0305874 0.0955396 -6.13427 -4.54973 -9.49568
73 1 Ar 12.7222 2.25364 0.296688 -1.18534 0.382703 0.0481076 -7.85345 8.54601 17.0982
513 1 Ar 13.7336 2.73856 0.517314 0.863436 -0.772304 0.587261 -7.7759 6.45773 2.43119
75 1 Ar 12.9099 2.72478 1.42416 -0.357401 -0.526745 0.363949 15.5073 -8.16033 -7.0903
36 1 Ar 13.8914 1.64774 0.689296 1.37828 1.41724 -0.792284 -12.5232 -0.129005 0.196609
74 1 Ar 14.6873 2.35473 0.468518 -1.53888 -0.231811 0.35593 8.6083 -10.616 -3.20284
441 1 Ar 15.6566 2.10749 0.837423 -0.0705218 0.409307 0.0495416 -0.0433038 -3.39142 -17.6836
402 1 Ar 16.7302 2.38508 0.740774 -0.00694467 -1.48689 0.421136 20.1607 12.9828 18.8666
525 1 Ar 1.02035 3.1922 0.82569 -0.523862 -0.681367 -0.0651664 -10.8382 -2.27383 -17.9129
120 1 Ar 0.153637 4.16452 0.862012 -0.813625 -0.325899 -0.142603 -0.899036 -13.3134 -8.17558
521 1 Ar 1.52292 4.2016 1.08596 1.1104 -1.44095 -0.607618 -17.9123 -13.9083 -2.4584
50 1 Ar 2.7754 3.99376 0.840851 -0.374803 -0.547225 -1.70917 5.42224 3.0904 1.62564
82 1 Ar 1.95954 3.94804 0.132219 -0.963373 -1.24241 0.576175 -5.74783 -3.60883 -3.69997
486 1 Ar 2.0913 3.15937 0.951816 0.904276 0.633449 0.644402 -10.9343 -0.733849 -5.87211
530 1 Ar 3.82298 3.85997 1.28318 -1.30928 -0.613604 -0.310564 -1.00963 -1.35704 12.7805
92 1 Ar 3.84685 3.70433 0.249663 0.33096 -0.246526 0.528513 -3.03812 3.86784 -9.99038
90 1 Ar 4.90263 4.27051 0.152062 0.124486 -0.570087 0.38982 -2.61488 -5.30154 23.5882
131 1 Ar 4.92773 4.00435 1.26115 -0.839626 0.500177 0.695217 -4.11728 3.17152 1.38061
3689 1 Ar 4.78099 3.22507 0.542739 -0.446761 0.512604 -0.764497 -0.490606 0.215281 -10.3579
3692 1 Ar 5.7897 3.6568 0.400679 -1.81351 -1.25085 -0.377778 -16.174 -9.42612 -5.26955
136 1 Ar 6.37594 4.27318 0.902491 0.980316 0.209803 0.855052 21.1216 -1.89409 23.8266
500 1 Ar 6.82111 3.27016 0.850566 -0.246603 -0.806172 -0.35049 7.47598 4.95941 9.83676
144 1 Ar 8.42278 3.96729 1.16398 -0.847847 0.481226 -1.34154 4.78967 2.48113 4.85459
493 1 Ar 7.78316 3.99431 0.338055 0.497666 0.432816 0.25028 -7.73088 -2.66546 -5.83458
135 1 Ar 9.10253 4.28084 0.101167 0.426078 0.246267 1.03732 -11.1024 -5.01559 14.1023
102 1 Ar 9.61114 3.69537 0.885913 1.48299 0.479667 0.246037 -6.59127 -9.76069 -3.24814
103 1 Ar 10.9434 3.72328 0.659133 -0.974148 0.989096 -0.640199 -3.61435 -11.1408 8.72986
112 1 Ar 11.6942 4.42319 0.96298 0.691376 0.578096 -1.1994 5.6026 4.44208 4.29793
110 1 Ar 12.3034 3.18213 0.0566913 0.293116 0.0963073 -1.36584 -5.26736 9.05816 -12.1987
155 1 Ar 13.6584 4.47616 0.841033 0.370728 0.988479 -1.77028 13.9312 -0.389942 -10.2277
76 1 Ar 12.2692 3.5288 1.31865 -0.31111 1.38929 -2.39747 -1.38183 8.39984 -12.255
553 1 Ar 13.1078 3.59602 0.58746 1.60292 -0.600614 -0.957199 1.48108 4.8239 6.16332
115 1 Ar 14.0975 3.85048 0.120118 -0.57616 -0.817633 0.542942 2.23025 -7.26198 3.17227
114 1 Ar 14.9935 3.36202 0.549942 1.12043 -0.225214 0.0657983 0.329509 5.16093 6.88547
159 1 Ar 14.8108 4.403 0.898379 0.580636 -0.351437 -0.0123349 -2.56286 -3.08415 -4.09343
509 1 Ar 14.182 3.56304 1.28458 0.0582897 0.970961 0.209908 4.47389 -19.1064 -12.4589
117 1 Ar 16.0547 3.20733 0.940325 -0.623629 -0.161346 -0.0308248 -10.427 -30.9853 36.3525
84 1 Ar 16.6599 3.31556 0.144966 0.338773 1.13307 -0.568778 15.3838 7.41331 2.45178
81 1 Ar 15.8866 4.08608 0.54425 0.0764284 -0.488976 0.625645 -7.2414 23.7371 -21.1629
124 1 Ar 0.0510531 5.20939 0.742764 1.91296 0.638313 -0.395863 -4.47547 -6.48762 -17.2315
163 1 Ar 1.39824 5.16275 0.295864 -0.591684 -0.168542 -0.192289 1.13191 -7.60603 4.98477
565 1 Ar 2.16671 4.92773 1.3472 0.735054 0.537899 0.677427 36.6431 -11.5344 -21.4648
128 1 Ar 2.37221 5.88957 0.818255 0.196835 -0.141458 0.0517154 -27.6023 -7.02567 24.0326
526 1 Ar 2.43242 4.89988 0.10712 -0.65244 -0.232292 -0.44936 -12.5279 5.55404 71.65
165 1 Ar 3.47858 4.84425 1.04223 -1.62924 -0.17556 0.704327 1.09987 6.5198 -2.76469
491 1 Ar 4.14164 6.01346 1.31826 0.915047 -0.843345 0.349149 -2.35838 -6.29167 13.4858
129 1 Ar 3.21297 5.65326 0.333789 0.885292 -0.503446 -0.388092 19.3743 -4.36487 -8.45486
3731 1 Ar 4.18515 5.1394 0.256056 -0.569683 -0.701336 -0.392857 20.785 4.7248 5.12252
133 1 Ar 4.67849 5.03895 1.28166 0.823341 0.608016 -1.34266 -9.6852 6.97492 -6.23113
96 1 Ar 5.8792 4.9626 0.338792 0.865194 -0.00829186 -1.43639 -10.6505 10.8347 -2.83628
3735 1 Ar 6.0798 6.00877 1.02095 0.552946 -1.18982 -0.103629 -10.2124 -3.00696 5.35463
130 1 Ar 4.81498 5.92563 0.546457 0.852208 0.105017 1.24275 20.8899 9.24594 5.50215
533 1 Ar 6.9449 5.01348 0.2621 -0.417941 1.39255 -1.0691 5.69017 -27.9801 -17.3455
573 1 Ar 6.70554 5.1751 1.28749 0.0838616 -0.821508 -1.10719 17.1841 1.93101 11.6699
538 1 Ar 6.98115 5.93959 0.610512 -0.921295 -0.118938 0.064839 18.6192 28.5268 -23.0793
534 1 Ar 7.83019 5.39051 0.877132 -0.616926 1.3336 -1.21958 6.48103 -9.39727 5.99208
544 1 Ar 9.04823 5.44879 0.967923 -0.909865 0.615852 -0.245806 -29.786 21.2628 16.5509
541 1 Ar 9.33106 4.60436 1.40009 0.251432 0.104025 0.979883 3.32444 -11.7494 14.8532
145 1 Ar 10.1472 4.65201 0.760999 0.506265 -0.814492 0.524619 -8.54042 5.89735 15.9324
148 1 Ar 9.94545 5.84695 0.80951 0.273829 0.95228 -0.199795 23.5619 8.8327 -6.31886
546 1 Ar 10.9529 5.73024 1.2397 1.66376 0.620496 0.336478 -11.9346 28.5367 -26.8358
147 1 Ar 11.738 5.44701 0.585711 0.919601 -0.928687 0.108973 -10.237 -20.6257 -6.41733
3711 1 Ar 10.9197 4.58945 0.137315 -0.547253 -0.281028 -1.0145 14.5344 10.2452 -22.3741
151 1 Ar 12.341 5.37675 1.50964 0.0719748 0.162804 -0.580667 -48.4969 -6.1298 2.27707
591 1 Ar 12.7073 4.89456 0.676356 2.2477 -1.04438 1.1294 0.438272 -9.56827 2.95427
191 1 Ar 12.8457 5.97833 0.738821 0.122464 0.0974505 -1.27911 16.1695 -9.43275 -4.16399
599 1 Ar 14.9135 5.43795 0.607281 0.126815 0.51386 0.958343 -2.04876 -0.0914169 -15.8709
596 1 Ar 13.8813 5.57255 0.985341 -0.859872 1.27383 0.740832 -2.92614 0.178698 10.797
121 1 Ar 15.8259 5.11838 0.0197938 -0.0172718 0.423681 1.15202 5.88075 2.63599 7.90375
518 1 Ar 15.8847 4.91791 1.16713 -0.202241 -1.91642 -0.132651 -0.786712 13.1459 -17.7887
598 1 Ar 15.822 5.97899 0.772902 -0.371958 -0.351061 -0.294186 6.48214 -6.17128 -15.9355
605 1 Ar 0.959603 7.24594 1.18139 -0.455808 -0.672582 -0.00581282 -6.53306 -5.46443 7.98693
158 1 Ar 0.10721 6.30429 0.663979 -0.905495 0.0819521 1.31095 2.1014 -3.49475 20.0847
205 1 Ar 0.976568 7.62849 0.218198 -1.23337 -0.477919 2.16176 11.3221 1.63876 8.90313
563 1 Ar 1.1738 6.13945 0.657708 0.045504 -0.44794 -0.267841 -12.6202 -22.2646 18.8888
522 1 Ar 1.85461 6.86137 0.647952 1.25028 -0.946666 0.00320626 -5.61295 -3.86321 -26.5699
132 1 Ar 2.74325 6.6137 0.195072 -0.862496 1.07517 1.03482 19.9245 11.0348 -14.8091
609 1 Ar 1.98743 7.41079 1.44274 0.806769 0.158216 -0.146539 11.7122 42.5286 28.4017
173 1 Ar 3.73683 6.76623 0.735684 0.244758 0.167817 0.437533 -11.6908 -2.84592 3.87437
174 1 Ar 4.5498 7.12922 0.192524 0.138098 0.875574 0.42031 9.44711 0.180023 -5.0459
170 1 Ar 3.5784 7.55806 0.0546286 -0.376226 -1.4878 0.347772 -9.92186 10.0727 2.15103
610 1 Ar 3.85685 7.60615 1.47579 1.02093 -0.645507 -0.811777 4.6663 -6.52616 -2.45466
178 1 Ar 5.48846 6.79687 0.690589 -1.30023 -0.426797 0.884195 -5.03698 -8.61766 7.63245
3375 1 Ar 5.51486 7.58183 0.0454308 0.5044 0.61347 0.607657 -21.2544 20.7511 -16.7928
618 1 Ar 6.75137 6.92214 1.07368 0.458635 -0.0513559 -0.802654 -8.82693 5.89892 7.91985
141 1 Ar 7.45829 6.85564 0.319033 0.231244 -1.5537 0.386078 11.9479 1.71598 -11.805
180 1 Ar 8.20128 6.4015 1.0832 0.468711 0.85371 -0.41087 -7.70238 2.05095 12.4513
183 1 Ar 8.76298 6.42468 0.226514 0.564953 -0.799816 -0.912218 1.89596 2.53077 1.85338
219 1 Ar 8.27146 7.47373 0.753384 -0.468993 1.11378 0.972694 3.73702 -27.8484 -0.58821
585 1 Ar 9.29546 6.723 1.17871 0.406142 -0.363878 -0.00721327 -5.17298 -4.56189 -3.91576
586 1 Ar 10.3231 7.26364 1.23884 1.59966 -0.00201249 0.259028 15.0833 -7.43773 -22.8192
3785 1 Ar 9.9115 6.84752 0.324974 -0.225489 -0.198557 -0.263493 7.11199 19.9511 8.54142
181 1 Ar 10.9597 6.4976 0.514726 0.507621 0.278193 1.35997 -32.0753 13.8914 21.2993
187 1 Ar 11.9267 6.37083 0.928729 -0.629106 0.150792 1.29351 20.7785 7.87668 -21.8202
188 1 Ar 10.7674 7.51277 0.156698 -0.30867 -0.319813 -0.0193823 -3.47816 5.6089 4.86686
229 1 Ar 11.57 7.39226 0.872358 -1.12926 1.77704 0.428185 -15.4364 -0.106474 -6.07739
190 1 Ar 12.576 7.40998 1.04156 -1.14093 -1.38658 1.67492 -14.539 18.0017 15.7536
3790 1 Ar 13.299 6.80829 1.36831 0.219809 0.551506 0.723227 15.2766 -7.73638 0.11129
3750 1 Ar 12.6726 6.88142 0.186588 0.461022 0.860422 -0.0892464 -1.73051 -5.34196 -17.5949
3760 1 Ar 13.7837 7.31219 0.245412 -1.78552 -0.786219 -0.171084 -2.55286 -3.5953 0.848989
199 1 Ar 14.7879 6.78851 0.50809 0.833349 1.50607 -0.883149 11.1287 8.48616 1.51915
560 1 Ar 14.7166 6.19284 1.34698 0.479814 -0.373186 -1.6935 -13.3841 -8.6663 15.2236
594 1 Ar 14.5728 7.29193 1.52055 -0.508445 -1.05522 0.487718 -1.07822 4.00213 3.09795
3799 1 Ar 16.4781 7.29183 0.704034 0.681821 0.985061 -0.110371 4.40963 2.01827 2.26196
597 1 Ar 15.5384 6.79732 1.35894 -1.02969 -0.0527294 -1.38515 11.8952 12.944 8.09317
608 1 Ar 0.508107 8.60897 1.16892 -1.85393 0.324654 1.04899 -6.85414 5.57539 -15.3647
207 1 Ar 1.50364 8.36192 0.871708 -0.543092 0.618856 1.08481 12.0952 1.81758 -13.3927
201 1 Ar 0.196324 8.33359 0.0558881 0.29561 0.677905 -0.202998 -5.55641 5.27959 2.53343
167 1 Ar 2.51298 7.65936 0.466349 0.442924 0.581305 -0.459608 -2.76496 2.12284 -5.53398
210 1 Ar 3.13891 8.41809 0.819584 -1.56094 0.0650954 0.429212 -1.25348 5.90518 -28.0299
3772 1 Ar 4.34732 8.35663 0.101812 0.749571 -0.958467 -0.399008 -10.5643 16.2555 31.2362
211 1 Ar 4.30476 8.6629 1.2134 0.655238 -0.744927 -1.66552 8.74958 -3.26027 2.19194
3774 1 Ar 5.94634 7.7335 0.959341 -1.54713 -0.187189 0.661392 28.8441 1.41278 8.81424
651 1 Ar 5.4232 8.56542 0.565149 0.879639 0.0876015 1.39086 -6.60484 12.51 -22.0141
620 1 Ar 4.92185 7.77437 1.04098 0.163472 0.124112 -0.0876387 -20.4542 -12.5261 -4.49076
215 1 Ar 7.13011 9.04028 0.517948 -1.07882 -0.85644 -0.279092 -22.2754 -4.71047 1.15589
297 1 Ar 6.31978 8.77276 1.13125 0.840781 0.494994 -0.567048 2.35971 2.66893 2.00436
224 1 Ar 7.35912 8.53671 1.41084 -0.685546 -0.0341896 0.970989 2.43822 8.61886 1.28996
3779 1 Ar 7.09982 7.9773 0.445053 -1.64498 -1.22263 -0.293781 5.31786 -10.2348 5.31989
3821 1 Ar 8.29747 8.46138 0.631775 0.177014 0.364199 -0.598526 4.71157 10.9924 -0.287172
225 1 Ar 9.28259 7.82258 1.00708 -0.605023 0.407468 0.129403 4.78164 3.32649 -0.921193
582 1 Ar 10.1957 8.5314 0.554254 0.540148 1.95499 -0.35057 -1.49056 -13.2395 0.484366
222 1 Ar 9.28159 9.05707 0.877929 -0.963547 0.291823 0.911457 -11.9388 -46.3408 20.9748
3791 1 Ar 11.8931 8.14019 0.188251 0.510573 0.709758 -1.62658 26.3163 1.46873 -24.6797
3836 1 Ar 11.2396 8.45112 0.847115 0.348041 1.02858 0.30692 -22.9694 12.0603 18.201
3796 1 Ar 12.125 8.60889 1.46312 0.527114 0.217539 0.437072 10.6723 -16.5781 12.921
195 1 Ar 12.995 8.1356 0.410125 -0.899297 -0.220298 0.447949 7.1524 3.69958 -5.29401
636 1 Ar 13.6457 8.81869 1.35315 1.48516 -0.632921 -0.285008 -10.6351 2.6406 -4.47591
197 1 Ar 14.3681 8.22697 0.527001 0.655797 -0.340616 -0.642194 -6.61886 15.3611 36.9539
237 1 Ar 13.8045 9.02531 0.230628 -1.35991 -1.44607 -0.979988 -8.52111 8.98421 -8.06206
164 1 Ar 15.4626 7.64515 0.728268 1.35289 -2.0409 -1.8733 -9.34273 7.47811 9.13065
3803 1 Ar 15.3468 8.89392 0.516856 -0.0408114 0.283353 0.0427757 4.66528 -6.35549 -5.59739
240 1 Ar 16.1421 8.51188 1.12863 0.68262 -0.578063 -0.24588 27.1383 -0.122803 -11.4329
3808 1 Ar 0.109244 9.32752 0.433459 -1.00055 1.4632 -0.617994 -2.63525 7.20584 -1.1936
208 1 Ar 1.231 9.56879 0.633623 -0.192334 -0.620333 -0.903163 -7.75077 4.30532 13.7681
641 1 Ar 0.455136 9.99102 1.25039 0.155723 -1.56309 0.486256 2.47365 2.15047 6.15693
242 1 Ar 1.95827 10.0546 0.0504495 -1.89593 0.990824 0.692047 11.4212 4.09072 40.5728
612 1 Ar 2.27422 9.30815 0.77203 0.934065 1.37584 1.73425 -27.9343 -39.3386 6.55656
212 1 Ar 2.43807 10.2355 1.11324 -0.117261 -0.81927 0.778574 7.29602 14.781 14.8806
213 1 Ar 4.06185 9.5041 0.63605 -0.178297 -0.579598 0.426416 5.37631 -8.61457 7.13104
649 1 Ar 3.67557 10.4121 1.07821 -0.920126 0.651433 -0.0498048 -4.82932 -12.9997 -12.2704
1010 1 Ar 3.18441 9.42727 1.30618 -0.552273 1.032 0.461559 2.52789 4.57554 18.9527
3812 1 Ar 3.07824 9.69533 0.331984 0.918738 1.20659 1.04223 -19.5111 9.86459 -12.0576
653 1 Ar 5.04256 9.49443 1.01244 0.336129 0.3714 -0.385694 9.65722 2.70365 3.65982
3856 1 Ar 4.68485 10.3245 0.228969 -0.930264 0.558549 -0.215946 -28.758 -0.455156 19.7436
3815 1 Ar 6.04844 9.46859 0.264859 -1.98821 0.424307 0.333097 1.45151 -1.61766 -0.466758
655 1 Ar 5.55888 10.4354 0.629659 0.159199 -0.624363 -0.796452 33.4349 12.7999 6.34316
3820 1 Ar 7.07359 10.1411 0.328659 -1.05439 -0.577694 -1.32384 -0.0997814 1.23897 0.569602
218 1 Ar 7.39654 10.5233 1.31481 -0.219445 -0.523034 1.6077 17.1718 -1.01072 -10.055
253 1 Ar 6.11348 9.90522 1.30259 0.246738 -0.499294 0.164077 -4.29903 -21.64 -2.58254
255 1 Ar 7.06488 9.55861 1.44722 -0.0810298 0.670678 -1.79469 4.97271 -6.26989 10.2468
223 1 Ar 8.10754 9.33474 1.25478 -0.848571 0.0353328 1.23859 -10.5427 -1.09196 2.00748
665 1 Ar 8.37168 10.4494 0.75513 0.0710449 1.24061 0.185895 -2.30675 -15.5531 38.2815
3859 1 Ar 8.02106 9.36592 0.231986 0.601071 -0.843751 0.0809792 27.6345 21.3037 -16.2042
3784 1 Ar 8.97147 9.79144 0.281977 0.897028 -0.00449613 -0.667908 5.78846 10.6048 -28.806
669 1 Ar 10.6665 9.37712 1.10139 1.54294 -1.00137 0.651711 0.188381 -11.4426 -15.9786
626 1 Ar 9.6149 9.96909 1.13276 0.668265 0.294337 1.83055 9.83249 31.9951 18.4763
267 1 Ar 10.544 10.3384 0.62303 1.07729 1.35542 -0.551253 -5.11405 -3.72458 25.4346
228 1 Ar 9.9941 9.52355 0.283095 -0.647971 0.426279 0.852583 -6.65733 7.37198 -18.5505
672 1 Ar 11.7907 9.42746 0.963489 -0.28941 -0.157927 -0.550463 -12.4391 13.9554 -4.55591
3907 1 Ar 11.5219 10.2199 0.27156 1.54229 0.533987 -0.399572 9.82574 -14.3288 -1.72986
230 1 Ar 12.7529 9.16486 0.631605 -1.75671 0.172254 0.0359884 7.95607 -6.95194 2.31968
3871 1 Ar 12.4756 10.3029 0.977474 -1.10092 -0.47761 1.06055 -11.5094 0.0810203 4.00106
3795 1 Ar 14.5632 9.26114 1.05792 0.0102457 0.447939 1.59926 -3.16086 3.222 -10.9196
194 1 Ar 13.7784 9.93672 0.811245 -1.25217 0.73121 0.65931 -16.5885 -1.44421 -2.81697
315 1 Ar 14.7437 10.364 0.733961 0.101723 -0.0893222 0.42688 9.9541 5.03627 2.20155
234 1 Ar 15.8508 9.92913 0.408219 0.433681 0.509453 -0.439979 -2.51193 -4.48746 -1.04262
717 1 Ar 16.3532 10.5186 1.14628 -0.62831 -1.33959 0.0987056 4.12476 -8.12182 4.67254
680 1 Ar 15.6239 9.57535 1.48846 0.859893 -0.219261 0.615133 -8.10608 -11.4778 -13.0057
279 1 Ar 0.427573 10.9145 0.466121 -1.17465 0.207846 0.34375 12.4843 -8.89217 2.00393
248 1 Ar 0.847881 11.8721 1.08852 -1.5681 -0.012863 -1.0969 4.12348 -10.878 -9.5586
241 1 Ar 0.64303 12.1614 0.045371 -0.333845 -0.889044 -0.0235522 1.5853 0.44489 -5.06335
245 1 Ar 1.62208 10.8527 0.843285 0.0951331 -0.0750971 1.10385 4.05288 20.4928 -46.0755
287 1 Ar 2.56209 11.3712 1.35921 2.09712 -0.413694 -0.158174 -13.3812 4.35216 8.54664
331 1 Ar 2.90495 10.9479 0.473362 -0.58315 -0.45891 -0.389993 -10.1915 -3.82982 3.3933
725 1 Ar 1.90124 12.0265 0.517943 0.431954 0.671882 -0.643456 0.852495 3.52074 1.20293
1089 1 Ar 4.573 11.4792 0.638834 1.54434 -0.750068 -0.193857 10.6165 -10.1533 5.05677
1090 1 Ar 3.5693 11.4353 1.09465 -0.638158 0.289551 -1.15459 19.5046 13.727 14.4844
249 1 Ar 3.06452 12.0007 0.375574 -0.327319 0.791159 0.818637 3.20694 -5.84897 14.8188
291 1 Ar 3.86918 10.9584 0.0226476 -0.261513 -0.816376 -0.703142 -5.84066 8.23733 -3.5086
250 1 Ar 5.69282 11.4471 0.992614 -0.202212 0.288176 -0.375968 -7.16138 5.25338 -6.61943
257 1 Ar 6.81598 11.2194 0.866085 -0.197009 0.918576 -0.193227 -9.58762 6.14449 -5.25632
693 1 Ar 6.66032 11.9908 0.154951 -0.870528 -0.00820118 1.46703 51.2333 -16.8995 19.6689
259 1 Ar 8.24759 11.5299 1.104 1.18181 -0.446274 0.950123 -23.7981 9.38687 13.8114
258 1 Ar 7.83927 11.0929 0.227696 0.867652 0.715194 -0.0468628 -47.6553 28.0286 -7.49492
668 1 Ar 9.11145 11.3407 0.640565 0.0630019 -1.32716 -1.33678 6.18614 -3.24716 -16.1644
666 1 Ar 9.92557 11.2013 1.23676 -0.863322 -2.56811 1.05798 4.28886 3.28145 -5.52585
707 1 Ar 9.91976 12.0962 0.22352 1.59221 -0.439623 1.01512 12.9127 2.80533 22.6584
272 1 Ar 11.3286 11.1256 1.24751 0.911475 0.661972 0.630114 -2.66117 -1.23447 -23.0386
3866 1 Ar 11.0009 11.1587 0.232371 0.322274 0.378319 -0.482023 2.63979 25.3436 -11.5696
3872 1 Ar 12.096 11.0893 0.356918 -1.05056 1.15383 0.107931 -7.05345 -5.03812 26.0883
270 1 Ar 12.63 11.5187 1.46986 -0.176426 -0.0710267 -0.456698 -21.7554 -0.925232 34.2321
3949 1 Ar 12.9395 11.7914 0.574006 0.569124 -0.171005 -1.12447 19.5361 14.2148 -23.0307
273 1 Ar 13.3248 10.8964 1.05268 -1.34285 0.0340322 -2.0135 -13.4803 -37.169 5.74748
3435 1 Ar 13.2157 10.9856 0.00379743 0.237053 -0.705613 -0.827954 10.5374 -24.1154 -11.8654
353 1 Ar 13.761 11.6796 1.4796 0.640991 0.889279 -0.412922 1.2492 31.4734 -20.7092
3916 1 Ar 14.0962 11.2692 0.552238 0.153834 0.0546997 -0.743802 15.1906 2.25802 -7.93085
3884 1 Ar 14.6946 12.1001 0.769176 -0.168816 -0.350262 0.834804 -1.20486 -1.16378 -2.37
319 1 Ar 16.6119 11.7476 0.600104 -0.42513 1.21449 -0.957863 -6.68691 17.1336 14.673
718 1 Ar 15.6072 11.1129 0.836255 0.140404 1.52561 -0.575768 -20.0415 7.17857 -3.75901
278 1 Ar 15.5794 11.9149 0.166633 -0.108819 0.410612 0.665038 3.13354 2.46607 -15.4681
282 1 Ar 0.633286 12.9924 0.784789 -0.269786 0.507279 -0.576652 10.8813 -10.5847 17.8401
285 1 Ar 2.56196 13 0.684221 0.645149 -0.0301115 -0.369066 -26.9024 -17.451 -18.8326
1171 1 Ar 1.69227 13.2876 1.26806 -0.671489 -0.964581 -0.690206 -2.87882 1.0491 -5.46614
732 1 Ar 3.35906 13.4798 0.990843 -0.80251 -0.483816 2.13852 26.8513 10.856 13.733
690 1 Ar 4.02737 12.3625 0.716358 -0.122629 -0.457878 -0.253265 -0.215068 13.041 6.56617
332 1 Ar 4.29756 13.5123 0.428577 -0.0968952 0.509794 0.424455 -1.58958 4.56496 -8.76745
729 1 Ar 5.13399 12.4362 0.606829 0.688256 -0.774359 -1.00232 -7.13126 -9.3797 -3.1612
1094 1 Ar 5.01934 13.3658 1.15913 0.0559505 -0.816913 0.546949 13.0481 -0.292324 8.54125
333 1 Ar 5.51251 13.2892 0.068892 -0.521828 0.902181 -0.984936 -8.29049 1.16605 -6.77743
694 1 Ar 7.21149 13.4142 0.825446 -0.685114 -0.278047 0.00506169 -5.4379 21.4694 -10.0862
295 1 Ar 7.59063 12.464 0.742541 -0.428054 -1.11923 -0.49422 0.427369 -15.8437 2.5645
700 1 Ar 6.13678 12.667 0.802678 -0.352439 -0.636303 -0.012313 3.18048 1.50842 16.2755
302 1 Ar 8.16427 13.2208 0.156349 1.12659 0.086792 -0.861465 2.73258 4.80206 9.06662
3864 1 Ar 8.51634 12.2385 0.241009 -0.749062 0.618189 0.9763 1.29069 -20.669 16.9268
3903 1 Ar 8.88357 12.7328 1.14066 -0.145027 0.889933 -0.75226 -4.83996 12.8253 -14.4606
266 1 Ar 9.36076 13.1731 0.102824 -1.19262 -0.0327927 -0.420822 -1.57384 -0.145222 -0.572949
308 1 Ar 9.90674 12.3905 1.29536 -0.134899 -1.09444 0.307127 9.49121 2.4348 0.719115
305 1 Ar 10.5238 13.46 1.04188 -0.467399 -0.880902 1.73303 5.12915 -26.8734 2.33544
3947 1 Ar 12.0027 12.2514 0.597944 -0.317982 -0.682318 -0.701432 -1.20561 -9.86185 -4.54385
3951 1 Ar 11.7844 13.204 0.9864 -2.51965 -0.432328 0.950798 -1.79981 8.40144 -0.468234
385 1 Ar 11.0241 12.6184 0.464424 0.792011 -3.16867 -2.49067 -20.4931 15.2519 26.199
310 1 Ar 12.9074 12.8359 0.747017 0.364878 0.41964 -0.511172 -25.5296 7.56157 28.5576
360 1 Ar 13.7576 12.7369 1.50523 0.7278 1.70562 -1.12799 -0.528049 8.46088 2.60734
3920 1 Ar 14.7653 13.0187 1.24188 -0.43854 0.816197 -1.10336 -12.796 17.9019 -6.73453
354 1 Ar 13.8443 12.8015 0.417728 -0.219535 -0.923496 1.11906 26.3929 -5.09731 -12.7229
3959 1 Ar 14.9782 13.3569 0.145307 -2.00628 1.09792 0.800324 2.74036 -7.45834 14.5947
357 1 Ar 15.6129 13.7039 1.06181 -1.22616 0.20502 0.063445 -22.0599 -1.31378 -11.1252
322 1 Ar 16.3425 12.798 0.228966 0.922336 0.0376944 -0.203527 7.07143 -6.58241 0.996418
321 1 Ar 16.59 13.5363 1.12977 -0.609274 -0.14263 1.0025 20.9238 -8.91081 8.04449
318 1 Ar 15.6692 12.5754 0.995937 -1.41951 -1.31107 0.112511 17.148 2.31891 -24.799
328 1 Ar 0.714331 14.1176 0.877015 -0.725115 0.354881 -0.315106 4.10121 -15.7567 21.8076
765 1 Ar 0.126338 15.1696 0.650168 -0.121101 -0.197205 -1.53451 3.56483 3.18253 27.2938
368 1 Ar 1.24871 14.9961 0.629409 0.877951 0.613217 -0.561668 -1.11515 -2.22455 -37.2028
768 1 Ar 2.02256 15.2433 1.22354 0.330122 -0.272831 0.88068 3.78182 0.433414 13.7618
367 1 Ar 2.42314 14.2995 1.25796 -0.023627 0.623595 -0.635421 20.6531 -12.4093 -10.3034
726 1 Ar 1.8081 14.0566 0.451955 -1.82174 0.327998 -0.0278808 -4.24431 -2.54721 -3.78922
371 1 Ar 3.24428 14.3826 0.422498 -0.179885 0.441926 0.347362 -2.92261 -3.91574 -13.622
336 1 Ar 4.23288 14.8496 0.418076 -0.00527295 0.379853 -2.09867 -11.4185 2.98751 3.63184
730 1 Ar 3.54528 14.5563 1.38112 -0.576768 -0.6612 0.601828 -1.82067 3.00607 13.3607
335 1 Ar 5.16639 14.3946 0.43317 0.268376 -1.05711 -1.01758 6.92779 -9.50917 -3.81452
734 1 Ar 6.01703 15.0512 0.543737 -0.124168 0.759937 0.400301 -3.85998 -5.52709 9.16916
735 1 Ar 4.7047 14.7532 1.40217 0.964571 -2.26742 -0.772324 9.10282 -7.98964 4.08026
1177 1 Ar 5.76098 14.4095 1.35625 0.348989 -0.880315 1.76694 -0.807444 -2.23149 6.74415
733 1 Ar 6.25254 13.9447 0.437356 -0.574336 -0.695308 -0.910702 6.01989 6.10102 9.06492
780 1 Ar 6.5002 15.2365 1.47828 0.331742 1.3638 -0.323193 -17.9819 9.96275 4.6549
1137 1 Ar 7.03466 14.6128 0.944858 -0.116405 -0.428738 0.84232 19.1234 -24.7534 -15.186
343 1 Ar 8.43249 14.8978 1.04722 -0.157362 0.885207 -0.0529548 -10.8762 1.7022 5.5289
747 1 Ar 8.84888 13.8507 0.89683 -1.0096 -0.71021 -0.745651 -5.47477 -1.02639 -1.88999
337 1 Ar 7.85556 14.2361 0.268241 1.13143 0.288285 1.18326 -8.0557 0.959647 4.61248
346 1 Ar 10.268 14.4163 1.19525 -0.0300586 -0.241664 -0.864635 -5.47533 16.1771 -2.0898
342 1 Ar 9.38268 14.8098 0.67551 0.173602 -0.361532 -0.200184 18.753 -7.17561 -4.48171
345 1 Ar 11.3857 14.1997 1.22856 0.72135 1.6786 0.983255 -8.18384 -1.26409 13.1137
348 1 Ar 11.9456 14.2883 0.357853 0.573446 -0.137869 0.322115 -4.26203 5.7103 -6.39909
786 1 Ar 11.1759 15.1124 0.660695 -0.468474 -0.21263 -0.603494 5.51453 -4.42878 2.01395
3910 1 Ar 10.8685 14.0006 0.171447 -0.405627 0.948278 0.16113 15.3718 37.1833 27.8057
3912 1 Ar 12.8456 13.8031 0.251561 0.299511 -0.738783 0.479988 2.5629 -20.3779 -20.1863
393 1 Ar 13.141 14.6115 0.785925 -1.56868 -0.814133 1.32451 -16.7493 39.1578 -13.8073
350 1 Ar 12.4406 13.8818 1.51768 -1.37466 0.13574 0.332128 -8.24346 14.2759 -17.9204
391 1 Ar 13.3706 13.7567 1.16132 -0.104331 0.993091 -1.7683 40.2383 -48.4932 7.86141
4000 1 Ar 14.7082 14.3746 0.899376 -1.01471 0.244902 -0.274244 -3.35804 -12.6353 -4.70522
400 1 Ar 14.0253 15.0935 0.394411 0.489981 -0.586512 -0.0852976 1.38871 0.4187 -6.61711
3591 1 Ar 13.9774 13.8462 0.18174 0.796647 0.962809 0.397977 -5.71837 13.959 11.7538
758 1 Ar 16.5623 14.2136 0.339067 -0.0719175 1.20437 -0.508238 13.2387 16.6109 7.61779
395 1 Ar 15.9893 14.7402 1.02889 -0.834369 0.303266 -0.0098324 -11.9187 4.3685 9.73092
358 1 Ar 15.4646 14.3128 0.0567633 -0.728214 1.44743 -0.418907 0.488782 3.87997 6.77021
3 1 Ar 1.39064 16.1923 1.2442 0.957026 0.60853 0.450143 -2.77984 -11.4137 -47.0356
4 1 Ar 0.127121 16.392 0.200551 -0.957803 0.0171135 -0.768507 11.4407 -4.34487 16.0064
399 1 Ar 0.273618 16.3759 1.27426 -0.161416 0.600948 -0.442641 0.910356 0.499646 -19.8696
364 1 Ar 1.27892 15.9432 0.0596211 -0.505262 0.185121 -0.622665 -21.243 7.59515 -0.466869
405 1 Ar 2.48455 16.1127 1.48335 0.90116 -0.510005 -0.48097 8.35674 -14.3018 7.8647
361 1 Ar 2.24822 15.8911 0.384312 0.0734381 -1.12266 0.0721712 -0.808499 -0.109541 21.0974
762 1 Ar 3.11496 15.4213 0.881116 -0.533618 -0.0587662 -1.86172 0.442077 1.6367 -2.23411
409 1 Ar 3.0991 16.5477 0.283137 0.350592 1.36582 1.11045 -8.14612 9.65448 0.178399
770 1 Ar 4.01409 15.5204 1.51322 0.802772 0.396668 -0.0234285 -11.8882 3.38087 -9.1607
11 1 Ar 3.88637 16.5443 0.999734 -0.094841 -0.3568 -0.993257 0.74578 3.16585 6.72691
773 1 Ar 4.00578 15.9622 0.0857074 1.16416 1.63671 -2.11734 -2.09684 8.11978 2.27504
374 1 Ar 4.90592 16.6653 1.33595 -1.11076 -0.204825 0.974987 23.1218 -35.2575 -16.331
736 1 Ar 4.79259 15.7002 0.782968 -1.85274 1.10507 0.905775 7.44099 5.04938 14.5875
380 1 Ar 5.84223 16.1894 0.798565 -0.645815 -0.472069 0.984898 -9.72186 -36.4252 -2.77488
340 1 Ar 6.86052 15.6729 0.583549 -0.0985904 0.129064 -0.0158305 10.4707 7.39156 -7.15683
3979 1 Ar 7.9094 16.5133 0.362221 1.03538 0.775246 0.412706 5.83145 5.02087 -10.2711
419 1 Ar 7.80822 15.8703 1.16129 -0.652704 -0.206291 -0.791694 -1.9965 -7.85887 13.0281
741 1 Ar 7.98928 15.3242 0.143463 -0.625707 2.58242 -0.1035 -15.3344 4.0934 2.36861
3621 1 Ar 9.0033 16.5365 0.0506502 0.189153 1.35601 -0.904334 -2.50803 -11.5769 1.09402
381 1 Ar 10.6001 16.0094 0.5254 0.343609 -0.55914 -1.77236 -16.4439 -12.2707 7.96207
742 1 Ar 9.58599 16.1189 0.930815 0.150649 0.354706 0.0227534 -1.51281 -32.0904 -33.2473
386 1 Ar 11.619 15.9465 1.28454 1.50193 0.885369 1.75691 21.3144 -17.8619 -13.3826