ITEM: TIMESTEP
400
ITEM: NUMBER OF ATOMS
4000
ITEM: BOX BOUNDS pp pp pp
0.0000000000000000e+00 1.6795961913825074e+01
0.0000000000000000e+00 1.6795961913825074e+01
0.0000000000000000e+00 1.6795961913825074e+01
ITEM: ATOMS id type element x y z vx vy vz fx fy fz
1 1 Ar 16.5595 0.0594133 0.0261213 0.10672 0.891376 -1.33354 25.1763 5.29877 -15.1159
2 1 Ar 0.749446 0.740179 16.7997 0.543714 2.35326 1.59722 -54.8365 45.564 -22.0911
3 1 Ar 0.869472 0.245496 0.880897 0.793421 0.56835 -0.822127 17.8203 -18.1967 27.0486
4 1 Ar 0.0759218 0.852766 0.775333 0.72678 0.519674 -0.659236 -38.4686 6.87949 8.4818
5 1 Ar 1.54412 0.243976 16.7569 -0.330974 -0.548343 -0.223628 58.8037 -32.7734 6.12267
6 1 Ar 2.96921 1.04498 0.0490329 -1.28316 -0.391984 -0.144885 29.1446 28.8055 10.6148
7 1 Ar 2.6654 0.440079 0.803834 0.296504 1.03797 0.288208 1.0406 -22.1602 1.54417
8 1 Ar 1.58896 1.0082 0.723502 -0.238518 -0.666903 0.304731 7.87921 -11.8174 -20.1145
9 1 Ar 3.42425 16.7918 16.5465 -1.51218 0.975652 -1.13339 9.6647 12.6729 1.66845
10 1 Ar 4.29809 1.25737 16.6381 0.1189 -0.0551506 0.882914 3.10664 1.63281 5.31099
11 1 Ar 3.96742 0.247079 0.67148 -0.482929 -0.483516 -1.18655 7.46306 4.04489 -2.2403
12 1 Ar 3.71806 1.35342 0.730397 -0.607412 0.0447653 -0.615646 -6.24959 -5.52456 1.52388
13 1 Ar 4.8782 0.176295 16.4744 -1.55478 0.809044 -1.32159 -3.02913 14.1085 -3.48268
14 1 Ar 6.0359 1.00132 16.678 -1.231 0.566957 0.0954116 25.5483 -37.0837 13.7933
15 1 Ar 5.84888 0.34775 1.06693 0.791278 1.5637 -0.259692 -18.6691 -10.8752 -4.15858
16 1 Ar 4.95771 0.807363 0.614495 -0.0863645 1.77252 -1.17338 13.0296 -33.9132 -6.68305
17 1 Ar 6.11083 16.721 0.0954781 -0.268218 1.61026 -0.252234 8.42328 20.8304 1.19483
18 1 Ar 7.80454 1.01969 16.618 -1.65107 -0.515118 -0.396817 -20.8486 -21.2788 -3.53559
19 1 Ar 7.56985 16.7735 0.287748 0.458636 -1.22688 -1.16476 0.537395 0.314566 -6.27009
20 1 Ar 6.76688 0.605162 0.727726 -1.38394 -0.240135 -0.238661 8.23901 -1.31866 -10.7901
21 1 Ar 8.54877 16.6596 16.4357 0.412636 -0.00962237 0.486318 -26.8518 1.54696 19.0426
24 1 Ar 8.3034 0.696111 0.805303 0.428643 0.883773 0.382483 -3.90915 9.1924 -4.38415
22 1 Ar 9.21101 0.48548 0.165624 -1.45476 -0.263043 -0.0756692 1.86521 10.4059 10.5379
23 1 Ar 9.95437 16.503 0.912994 -0.779762 0.370227 -0.271182 -23.6573 -4.34844 -7.10849
25 1 Ar 9.96726 16.667 16.602 -0.0680392 -0.108182 -0.246981 -1.66042 1.47815 2.43078
28 1 Ar 10.1073 0.738023 1.02578 -1.13991 -0.884917 -0.0560083 -9.29448 6.73354 -9.30995
26 1 Ar 10.6893 0.713895 16.6603 -0.13994 -0.742732 0.184351 24.5571 -11.9654 11.2468
27 1 Ar 10.9035 16.7769 0.76101 0.757634 -0.210173 0.768201 19.5669 5.41299 7.60176
29 1 Ar 11.7459 0.101737 16.6149 0.430787 1.27733 -1.25863 -5.03968 4.19381 -7.76279
32 1 Ar 11.574 0.771585 0.762576 -0.452301 0.19257 0.648242 6.94287 6.97954 2.60523
30 1 Ar 12.5288 0.93769 16.6077 -0.755091 -0.552046 0.949934 0.120801 -3.54495 4.27253
31 1 Ar 12.4219 0.0701681 0.646552 1.4773 0.823344 0.415721 3.03309 -1.43922 3.89895
33 1 Ar 13.3819 0.259417 16.7073 0.357905 -0.186355 -1.62879 -6.58754 4.45582 13.3513
36 1 Ar 13.1045 0.932732 0.787628 -1.14097 0.843678 1.67516 3.80611 -2.32103 -2.83648
34 1 Ar 14.4283 0.961794 16.7538 1.84112 1.32849 0.80746 8.85688 -15.9755 4.6364
35 1 Ar 14.0988 0.297497 0.781089 0.768309 0.359637 -0.159577 -0.352285 3.1505 2.53127
37 1 Ar 15.1411 0.0286217 0.0884844 -0.963613 -0.165597 0.649185 -17.9004 1.10002 -24.7269
40 1 Ar 15.1506 0.84734 0.754056 -3.2312 1.19987 -0.00575919 -12.6961 4.86525 9.97747
38 1 Ar 15.8131 0.95629 16.7391 1.0621 0.691743 -0.197058 -7.30687 -5.80172 11.5906
39 1 Ar 15.8978 0.0954062 0.768631 2.35453 0.0274348 -0.624285 -7.37992 19.4809 25.1659
41 1 Ar 16.6998 1.79357 0.0159359 0.0375599 0.194558 -1.41656 -12.1586 15.3486 10.007
42 1 Ar 0.519707 2.66468 0.0891394 2.26529 -0.764851 -0.404948 25.7327 16.9222 -6.34751
43 1 Ar 0.67143 1.6973 0.722132 -1.18913 -0.500075 -1.14371 7.10313 -2.13288 -5.88372
44 1 Ar 16.5713 2.67585 0.705055 -0.258861 0.0358972 0.237504 -25.3389 -12.5624 26.5807
45 1 Ar 1.85059 1.68293 16.5466 1.64417 -0.703201 -1.48912 -2.13746 -8.70684 -3.79278
46 1 Ar 2.35177 2.89487 0.0777678 -0.139644 0.443876 0.0406156 22.8851 2.1452 12.9758
47 1 Ar 2.43586 1.80471 0.637303 -1.86997 0.109181 1.36645 3.43681 2.32024 9.6744
48 1 Ar 1.48162 2.4526 0.522702 0.0776209 -0.144485 -0.19585 -3.03859 -8.54048 6.74185
49 1 Ar 3.38306 2.06595 16.5622 -0.423913 1.95894 -0.0572777 -1.87407 -0.236672 -0.321818
50 1 Ar 4.45585 2.33618 16.6152 -2.22369 1.28319 -0.184662 4.23435 8.12606 7.71561
51 1 Ar 4.6925 1.72453 0.782113 1.67463 0.954446 -0.647881 -5.6072 43.8052 2.35544
52 1 Ar 3.5705 2.41449 0.852 1.0757 -0.691437 1.28806 1.58025 -6.44427 3.86928
53 1 Ar 5.44367 1.75569 16.776 1.5189 0.66635 1.15698 -25.6658 39.6335 9.43704
54 1 Ar 6.14245 2.60886 16.6609 1.32818 0.316905 2.41004 1.62494 16.4869 -11.9099
55 1 Ar 6.11807 1.39319 1.02044 -0.159456 0.135212 -0.295676 -3.22591 16.7171 -7.39008
56 1 Ar 5.58721 2.59466 0.765294 1.55091 1.91516 0.485357 -6.3133 -6.03704 0.484923
57 1 Ar 6.6722 1.81322 0.178741 0.292484 -0.837341 -0.785159 2.00806 -18.9682 -14.145
58 1 Ar 7.62215 2.27309 16.6586 0.416581 -1.15595 0.475862 6.9445 3.04605 12.4393
59 1 Ar 7.42219 1.3674 0.732201 0.729682 0.21499 -1.15271 6.17076 8.81331 13.4544
60 1 Ar 6.88797 2.40251 0.979998 1.35802 -0.956491 1.62928 31.3572 6.78034 -18.5982
61 1 Ar 8.68523 1.42294 16.7188 0.122505 0.27165 1.1225 15.8884 12.7361 16.162
64 1 Ar 8.22696 1.99572 0.857446 -1.68087 -1.50984 0.165321 8.44117 11.4657 1.21379
62 1 Ar 9.13483 2.3877 0.137299 0.140869 0.364142 -0.13004 3.34159 1.88427 0.833403
63 1 Ar 9.14333 1.41671 0.919829 0.752467 -1.21243 -0.343171 13.6405 -3.15284 -12.6084
65 1 Ar 10.0279 1.45035 0.0551029 1.50497 0.616475 -0.81671 -30.0176 8.78983 -14.7215
68 1 Ar 9.98962 2.57577 0.897002 0.519466 0.211217 -0.410655 14.516 5.44784 -9.92461
66 1 Ar 10.7092 2.38407 16.7311 0.784117 0.447026 0.512975 2.77892 -10.323 12.1696
67 1 Ar 10.5899 1.69185 0.841569 0.971006 -0.610983 -0.202587 19.7285 0.863682 14.7057
69 1 Ar 11.5893 1.47319 16.7482 -0.579728 -0.0795381 1.66632 -6.91247 17.3671 17.7201
72 1 Ar 11.4506 2.45321 0.828206 -0.207656 0.641702 -1.25827 -4.53456 -7.65562 -4.49202
70 1 Ar 12.3651 2.31204 0.0951766 0.660765 -2.21023 -0.699833 5.6931 13.7611 -18.688
71 1 Ar 12.3661 1.69166 0.872939 1.96576 -0.0442798 -1.41435 -10.3452 -11.0985 14.3085
73 1 Ar 13.5506 1.42737 16.7724 0.106517 -0.116678 -0.231321 -20.3406 20.7625 7.80774
76 1 Ar 13.4193 2.38603 0.712188 1.3685 0.0831115 -0.690467 1.3551 2.99477 -5.03817
74 1 Ar 14.4125 2.76029 0.264613 1.19777 -0.237151 -0.0721974 -16.5599 2.34597 -16.6701
75 1 Ar 14.374 1.62755 0.996127 0.810076 -1.0966 -1.47877 -15.7823 1.24836 -13.2745
77 1 Ar 15.0768 1.7955 16.6848 -0.835355 0.156804 1.54166 -1.94976 -3.42865 13.5338
80 1 Ar 15.0044 2.59195 1.06268 -0.765757 1.01001 1.6253 0.395278 -36.0893 -4.56864
78 1 Ar 15.5111 2.77969 0.167933 0.526059 0.0323282 -0.442807 17.3419 -4.88754 -3.45437
79 1 Ar 15.8462 1.64297 0.739219 -1.48799 0.0378947 0.55273 4.64148 15.037 1.19491
81 1 Ar 16.4617 3.49538 0.0425938 -0.687938 0.529882 -0.407679 -6.61512 5.42624 -1.52074
82 1 Ar 0.671445 4.51037 0.114567 0.575914 0.27203 -0.0580667 -0.187415 2.8194 -22.9378
83 1 Ar 0.645214 3.55931 0.56704 0.242526 0.22007 -1.30299 -13.6981 3.54126 23.9458
84 1 Ar 16.6135 4.45996 0.681257 0.180572 0.857293 1.08099 -13.2113 -2.0455 8.52457
85 1 Ar 1.45566 3.60908 16.7532 -0.234964 0.33557 -0.0293752 13.863 10.4401 -3.51347
86 1 Ar 2.54489 4.07258 0.0826548 -0.352654 -0.0148017 -0.608799 -0.257712 -3.23596 1.81229
87 1 Ar 3.18918 3.30706 0.48923 0.628936 0.581959 0.315016 -5.79423 17.5975 25.1744
88 1 Ar 1.52367 4.18394 0.92452 -0.705263 0.248956 1.18733 11.3228 -14.7421 -11.6672
89 1 Ar 3.73535 3.22423 16.4556 -0.392434 0.22907 0.177576 -34.8452 -19.4376 18.2685
90 1 Ar 4.21756 4.16065 16.7928 0.716354 -0.84097 -0.0821263 1.25686 3.48646 -3.44525
91 1 Ar 4.02642 3.59928 1.10533 -0.217 -0.608785 0.662718 14.6944 9.11163 -14.5941
92 1 Ar 3.42389 4.48426 0.687067 0.0234263 0.506213 -0.343511 -7.62437 -16.2685 10.6256
93 1 Ar 5.2425 3.16616 16.5237 -0.0944274 -0.85207 -1.61645 -2.19789 5.68694 1.51981
94 1 Ar 6.21969 4.0201 0.0883351 -0.903512 0.727911 1.06745 -1.19412 -4.95994 -7.97067
95 1 Ar 6.34012 3.3882 1.01295 1.08813 -0.745039 -0.0995394 -15.8083 7.87689 -25.8814
96 1 Ar 4.99466 4.18776 0.776519 1.27744 1.1465 -0.128698 1.49135 -0.344823 2.78478
97 1 Ar 7.21857 3.21377 0.164794 -1.56611 -0.896839 -2.84953 -8.78944 7.18711 2.81673
98 1 Ar 7.93613 4.17893 0.43759 0.15715 0.126618 -0.25332 -5.78928 -6.02931 4.57354
99 1 Ar 7.97463 3.14628 1.25872 -0.0869179 0.180951 1.01513 1.37557 -11.3373 -3.23854
100 1 Ar 6.85196 4.35403 0.921094 0.158231 -0.419799 0.659341 17.3064 -7.23873 1.45044
101 1 Ar 8.31435 3.1766 0.167375 -0.144321 -0.890139 0.282664 4.89279 -1.50125 -3.34567
104 1 Ar 8.72976 4.54672 1.15884 0.157151 -0.517132 -0.331527 9.83951 3.22947 -4.74812
102 1 Ar 9.177 4.26749 16.6888 -0.309032 1.3389 0.43318 -2.2114 -10.2989 7.58689
103 1 Ar 9.29816 3.56851 0.917427 -0.530287 0.348202 -0.599413 -11.2465 -9.35794 -5.76497
105 1 Ar 9.76479 3.36866 16.6783 -0.309733 -0.6441 0.664922 11.2692 -4.78615 4.80936
108 1 Ar 9.90262 4.41647 0.79612 -0.88622 -1.75566 0.48149 0.430635 3.23742 -8.44113
106 1 Ar 10.7615 4.18793 16.6547 -0.669745 -0.239216 -0.138025 2.63705 7.37665 -5.727
107 1 Ar 10.8028 3.32623 0.439662 1.03944 1.21553 0.777871 0.698644 -4.37813 12.1907
109 1 Ar 11.5847 2.91417 16.4914 -0.280883 -0.60461 -0.833724 3.86717 8.73507 -2.18585
112 1 Ar 11.6634 4.08465 0.707865 0.489554 -0.19496 -0.442559 -22.466 23.4562 -1.07181
110 1 Ar 12.4957 4.25044 0.091816 -0.373204 -0.803185 -1.194 0.848063 -9.25917 -15.2657
111 1 Ar 12.1711 3.23606 0.825358 0.491424 -0.241305 -0.240674 16.0266 -18.8028 -3.03891
113 1 Ar 13.0628 3.34454 0.259562 0.421461 0.941817 0.946355 11.4239 -1.39124 2.96568
116 1 Ar 13.0666 4.45998 1.01415 -0.508676 0.681299 -0.73021 0.0400434 -15.3874 -20.0114
114 1 Ar 14.0937 4.16751 16.604 -0.209318 1.65138 -1.39764 -2.3915 -24.5129 18.3
115 1 Ar 13.9982 3.71924 0.842627 1.23587 -1.06661 2.01338 -10.329 9.76467 -12.8991
117 1 Ar 14.9839 3.57034 16.5364 -1.35806 1.3352 0.599095 -12.2791 8.89676 5.22033
120 1 Ar 14.9848 4.05005 0.923506 -1.18215 -0.463042 -0.00569363 4.30671 3.38101 -0.939052
118 1 Ar 15.6471 4.3415 0.173702 -0.934088 1.64875 0.88673 16.8107 -13.5191 -21.3909
119 1 Ar 15.9297 3.42765 1.04329 0.127329 -0.503707 0.656365 2.24719 11.9654 -7.78146
121 1 Ar 16.5442 5.28039 16.568 0.0756982 -0.481281 0.197977 8.86031 -9.45801 -7.79727
122 1 Ar 0.674303 5.70264 0.345804 -2.26283 0.18298 -0.14319 -17.0847 -6.58205 -5.66475
123 1 Ar 0.755698 4.85529 1.08764 -0.167018 -2.25433 0.660684 -6.11468 7.82359 10.3654
124 1 Ar 16.3557 5.59001 0.747476 0.847622 0.266414 1.11475 1.79525 7.38976 10.7988
125 1 Ar 1.67843 4.71281 16.7995 -1.15229 -1.55362 0.423259 10.269 9.11963 -6.2466
126 1 Ar 2.62815 5.50506 0.104095 0.192399 0.227859 1.20663 -10.1341 -4.22743 -1.82882
127 1 Ar 2.39212 4.83809 0.902281 -0.0013209 -1.28137 0.247087 7.10594 11.8171 -4.45993
128 1 Ar 1.62152 5.56184 0.714244 -0.160138 -0.806705 -0.172082 -1.39068 -8.08407 6.13878
129 1 Ar 3.6074 5.15435 16.741 -0.371043 0.801928 0.257631 2.72256 5.95192 -17.0667
130 1 Ar 4.38427 5.87772 -0.0241109 -0.468318 -0.489853 -1.73914 -5.00343 -7.28505 -8.73883
131 1 Ar 4.31413 5.11703 0.807129 -0.245012 0.957565 0.501675 0.985599 -34.8575 -38.1671
132 1 Ar 3.38451 5.82287 0.891274 0.413712 -0.00853289 0.10763 6.86081 -33.6958 -24.0034
133 1 Ar 5.15796 4.97249 16.7683 0.598705 -0.746625 0.743153 -5.19395 -1.7286 2.38243
134 1 Ar 6.06469 5.83686 0.205681 0.526634 1.25334 -0.897743 19.2872 2.10484 -8.678
135 1 Ar 5.91895 4.8032 0.73467 0.684306 -0.714709 0.236938 -6.05742 9.29555 -19.5302
136 1 Ar 5.15623 5.83856 0.631438 0.905877 -0.398399 -1.14943 -0.685777 -0.726969 26.2477
137 1 Ar 7.05093 5.14308 0.195522 -0.228777 -1.04787 0.607187 1.22573 4.07518 -6.45785
138 1 Ar 7.72037 6.12868 16.744 0.268614 1.22522 -0.0140228 -8.2756 -2.9497 4.46644
139 1 Ar 7.95193 5.32883 1.19706 0.705465 -0.832246 0.25018 -12.5473 -9.51533 1.35144
140 1 Ar 6.82898 6.35688 0.814258 0.0218673 -0.225194 0.615313 10.1339 10.9704 0.987103
141 1 Ar 8.18404 5.05761 16.7148 0.354758 0.572909 0.96288 13.7571 8.57339 18.0691
144 1 Ar 8.69545 5.98637 0.902846 1.08473 0.756075 -0.598027 2.9076 7.58541 0.156739
142 1 Ar 9.6772 5.99975 16.4741 -0.145 -0.490797 -0.248204 -11.7838 12.0861 11.7146
143 1 Ar 9.18613 5.26011 0.255513 -1.44816 -0.963036 0.176743 0.751792 -2.01259 1.47086
145 1 Ar 10.183 5.06764 16.3867 -0.395523 1.57787 0.26133 -0.969843 -1.57009 0.76965
148 1 Ar 10.2713 6.15784 0.646693 0.559136 -0.0297576 -0.135273 -13.9379 4.00851 -34.4424
146 1 Ar 10.7812 6.08949 16.46 0.951608 0.540102 0.289539 5.12196 -11.9036 10.7474
147 1 Ar 10.8732 5.16137 0.496611 -0.182109 0.220785 -0.530077 -3.28461 1.65636 2.4685
149 1 Ar 11.6879 4.9551 16.5875 -0.513483 1.10729 0.548287 -4.92233 19.1478 23.5725
152 1 Ar 11.7748 5.92834 0.386175 -1.41937 -0.403869 -0.177544 -30.5142 14.1169 7.81281
150 1 Ar 12.6231 5.81223 16.6666 -0.60779 1.37366 0.935369 19.6342 0.317415 -12.6402
151 1 Ar 12.3249 5.09998 0.689026 1.35589 -0.483406 0.3222 -7.69133 3.87689 4.67542
153 1 Ar 13.297 4.93487 0.0496307 0.471396 0.585612 -1.15804 6.17514 16.2916 15.8343
156 1 Ar 14.1398 5.83466 1.32887 1.20523 -0.0506734 1.00237 -2.54091 2.45344 2.46819
154 1 Ar 13.9797 5.82863 0.152636 -0.252017 1.15475 -0.126277 -0.225231 -4.73923 2.41978
155 1 Ar 14.2159 4.81992 0.841991 0.986695 0.991386 -0.122645 -10.071 0.864761 11.9247
157 1 Ar 14.7628 4.90888 16.772 -0.547721 0.714405 0.896421 18.0322 17.9978 -2.4834
160 1 Ar 15.0964 6.05443 0.805404 -0.142349 0.58425 0.0605369 -8.44374 24.1118 3.84327
158 1 Ar 15.5858 5.69748 16.6995 0.904907 -0.131798 -0.714777 -3.05374 4.80485 -0.00864985
159 1 Ar 15.3917 5.09762 0.798649 -0.308485 0.312857 0.918748 3.66086 -11.2211 22.4876
161 1 Ar 0.129417 6.52601 16.6124 -1.30119 0.368959 0.726028 4.85172 5.53436 18.1865
162 1 Ar 0.816654 7.57478 0.150578 1.60174 -0.946289 1.02128 19.6462 3.73927 -37.6709
163 1 Ar 1.05483 6.66663 0.582791 0.926472 0.207517 0.011482 -8.21593 -16.4876 1.36164
164 1 Ar 0.156473 7.55052 0.881011 0.422038 -2.25359 1.08867 -19.6719 -9.70855 1.92117
165 1 Ar 1.9475 6.32511 16.6938 0.573198 0.439989 2.19506 -7.82842 -0.230647 -4.47886
166 1 Ar 2.57746 7.19549 16.6998 0.0971023 -0.142254 0.621528 5.71877 9.75127 -0.918071
167 1 Ar 2.33268 6.27563 0.901854 -0.291362 0.686198 0.78922 10.3106 6.68308 10.4039
168 1 Ar 1.86562 7.25999 0.723725 0.0213553 0.398615 -0.155841 8.68783 13.6628 -5.32467
169 1 Ar 3.17394 6.32509 16.5176 -0.392626 0.77709 0.133186 3.26722 -3.00653 10.8082
170 1 Ar 4.59441 7.60053 0.339513 1.71737 -0.412525 1.06397 -4.18588 16.7699 -12.2913
171 1 Ar 4.43505 6.63181 0.679934 -0.821375 -1.00616 -0.383058 -5.92308 0.522376 16.187
172 1 Ar 3.25032 6.79791 0.705281 0.0516516 -0.764475 -1.30671 2.88042 31.7269 -5.43226
173 1 Ar 5.16682 6.7334 16.6229 -0.117885 0.74079 -0.313313 -0.318966 1.21272 0.469412
174 1 Ar 5.95981 7.62451 16.6522 1.438 0.222579 0.174972 -0.379301 -5.67432 0.760147
175 1 Ar 5.83832 6.8164 0.99468 0.710097 0.849817 -0.131011 11.2979 -7.23782 -14.5837
176 1 Ar 5.37156 7.70361 0.892009 0.937239 -0.202189 -1.70632 33.918 12.3421 -26.9204
177 1 Ar 6.75345 6.76102 16.6377 0.701448 -0.5627 -1.01895 -0.675046 3.00099 1.98481
178 1 Ar 7.57242 7.56871 16.6962 0.342905 0.38708 -0.550981 3.42037 -1.95618 -2.94377
179 1 Ar 7.8447 7.01728 0.82042 0.818209 1.09159 0.215931 -4.71651 -21.0618 -17.665
180 1 Ar 6.53773 7.68397 0.79966 -0.494829 -1.22381 0.6742 5.29752 -0.559517 -4.62269
181 1 Ar 8.56702 6.80014 -0.00232515 1.84816 -0.0487155 -0.629471 2.38406 4.49558 -4.12471
184 1 Ar 8.65321 7.76887 0.695354 0.18619 0.794973 0.742282 2.93024 -20.5412 36.0178
182 1 Ar 9.55246 7.73213 16.5982 -0.987652 0.912124 0.659188 -2.68888 0.643707 -4.50266
183 1 Ar 9.38261 6.78191 0.743527 0.676907 -1.03421 1.25215 4.19279 9.60086 0.284854
185 1 Ar 10.3563 7.0278 16.5107 0.377872 1.34582 1.12628 -14.881 0.993364 -9.75975
188 1 Ar 10.161 7.61941 0.665828 -1.02283 0.892684 -0.384469 5.44948 -0.0248518 7.33882
186 1 Ar 10.9884 7.87328 16.5949 -1.0652 2.11875 -0.0303005 -11.1033 -19.8268 -2.06164
187 1 Ar 11.003 6.81267 0.485702 -0.162106 1.14734 -0.550367 29.0072 14.3092 5.97153
189 1 Ar 11.6062 6.98942 16.3306 0.0717312 -0.92089 0.861758 -17.6779 -36.1869 21.0558
192 1 Ar 11.5745 7.67943 0.794199 1.36304 0.370377 -0.48848 -0.312349 25.235 -26.4934
190 1 Ar 12.2292 7.74638 16.5962 -1.78519 0.165648 -1.97778 -12.8221 7.46432 5.50276
191 1 Ar 12.3357 6.91127 0.680198 0.6048 -1.81974 0.0983096 -4.74124 -3.07271 -3.50454
193 1 Ar 13.0471 7.04725 16.6959 0.662396 0.361639 0.147747 8.82369 -2.64847 -4.3489
196 1 Ar 13.3996 7.47186 0.923391 -1.36935 -0.841354 -0.670854 -22.7552 -35.4137 23.3927
194 1 Ar 14.5217 7.79794 0.605879 -0.409289 -0.72111 -0.595814 -21.4641 23.3946 -36.769
195 1 Ar 14.1272 6.79728 0.666065 -0.993704 -1.27893 -0.679781 11.7414 -12.5034 1.22156
197 1 Ar 15.1711 6.95836 0.125336 0.644494 0.26851 1.43424 0.279228 -4.76432 9.86211
200 1 Ar 15.0812 7.32417 1.23637 0.158115 -0.0541738 0.127736 25.0768 -22.0598 30.3057
198 1 Ar 16.1588 7.41619 0.101962 -0.969547 -0.117085 -1.06878 0.395817 -3.6844 -1.83709
199 1 Ar 15.9941 6.7337 1.04443 0.89102 -1.29204 0.136868 -0.67594 -11.4684 -7.90605
201 1 Ar 16.7268 8.32664 0.0692893 -0.0174334 -0.365938 0.337436 2.21598 4.04184 -5.00763
203 1 Ar 0.770273 8.42955 0.752778 -0.444047 -1.59775 -0.367486 -1.50988 -7.74561 -12.8282
205 1 Ar 1.56367 8.41536 16.7163 -0.88863 -0.947642 0.653095 4.32231 -6.80415 1.52577
207 1 Ar 2.53918 8.22691 0.535757 -0.21987 0.716893 0.727717 -3.88734 -5.90228 3.39963
209 1 Ar 3.6226 7.98354 0.344348 -0.613301 -0.706622 0.273647 -13.5186 24.591 9.71227
211 1 Ar 4.21255 8.65284 1.36879 0.637369 0.782735 0.300534 -6.76945 -32.2332 17.4514
213 1 Ar 5.06003 8.03418 16.2346 0.664261 -1.06579 -1.61851 -5.75441 -2.39534 0.408736
215 1 Ar 5.94837 8.58402 0.862445 -0.0474711 -0.597878 0.55196 1.93267 8.91272 -4.53624
217 1 Ar 6.78792 8.32765 16.6641 -0.329347 -0.804712 0.334951 -0.341438 1.79834 -6.82417
219 1 Ar 7.57676 8.32928 0.70075 -0.438283 -0.309474 0.398326 -6.13187 2.82652 -19.7893
221 1 Ar 8.58924 8.17047 16.6082 0.841023 0.606421 -0.00635685 -26.1948 5.93303 -29.4978
223 1 Ar 9.32448 8.60721 0.681273 0.307312 0.133441 -0.478985 9.90198 -2.51626 8.5069
225 1 Ar 10.2091 8.61538 -0.00758792 -2.12566 -0.742579 -1.32215 -9.00665 -19.5303 27.1802
227 1 Ar 10.7176 8.57021 0.940991 2.29021 0.0466832 0.730255 7.2432 -6.06823 -0.434085
229 1 Ar 11.5631 8.67691 16.6581 1.34794 -0.825183 0.857641 19.0593 10.2479 0.49855
231 1 Ar 12.5237 8.23894 0.687902 0.68568 0.666253 0.118746 -3.51892 3.15975 10.9393
233 1 Ar 13.5657 8.30339 0.475163 1.33602 1.17027 0.93847 11.3446 46.8743 -21.8908
235 1 Ar 14.0434 8.94452 1.22939 -0.697991 -0.600025 -0.354684 -5.50888 -10.3549 -10.2508
237 1 Ar 15.3072 8.16748 16.7644 1.7951 -0.458949 0.639339 6.42781 7.71859 3.69192
239 1 Ar 15.9888 8.21642 0.946899 0.841842 0.148125 0.344265 -13.9101 10.5683 -18.7116
202 1 Ar 0.929967 9.31132 0.0796614 0.154825 -1.05273 0.394242 -2.90267 -2.1321 -6.5681
204 1 Ar 16.7076 9.34096 1.08154 -0.487984 0.959811 0.250529 15.1944 -22.6931 -22.446
241 1 Ar 16.803 9.92494 0.0929706 1.50431 -2.02636 2.03591 17.5167 18.84 -2.81179
243 1 Ar 0.986532 9.91764 0.972079 -0.505566 0.815839 -0.465024 2.9733 8.51541 -5.94135
206 1 Ar 2.48111 9.17008 16.8017 -0.582864 -0.614533 0.50481 0.574561 1.49639 -4.23805
208 1 Ar 1.68787 9.00208 0.837863 0.296237 -0.500253 -0.077514 11.6587 13.7615 -3.72178
245 1 Ar 1.77618 10.0268 0.118776 0.748419 -0.404067 -0.507218 -8.7252 -3.35019 0.0200064
247 1 Ar 2.57376 9.85058 0.887197 1.42382 0.943031 0.773867 -1.88308 5.53826 1.69849
210 1 Ar 3.85693 9.10966 0.00333784 -0.412413 1.03667 -0.419181 -8.63836 5.11938 -4.43104
212 1 Ar 3.23833 9.01363 0.935518 0.491903 -0.106885 0.253591 -0.521112 -6.25821 -11.3784
249 1 Ar 3.55183 10.4013 0.316185 -0.31355 -0.768791 -0.165415 -10.5388 -18.0302 -7.85164
251 1 Ar 4.25418 9.60362 1.03247 -1.07189 0.928687 -0.495536 -2.02355 16.2425 -11.4323
214 1 Ar 5.5674 8.94941 16.6779 -0.915901 -0.427736 -0.730196 8.344 -11.5698 0.741128
216 1 Ar 4.69869 8.73216 0.485629 0.289886 1.65869 -1.23079 18.3148 -4.94684 -10.8355
253 1 Ar 5.33673 9.77578 0.623383 0.0112787 0.128006 -0.21922 3.2939 -1.51334 2.2818
255 1 Ar 6.30603 10.4579 0.767249 -0.140658 0.337484 0.123596 6.29886 -7.84155 -19.7508
218 1 Ar 7.76803 9.22549 16.6005 -0.825058 0.504727 -1.29817 -4.62783 -4.59824 0.621634
220 1 Ar 6.86378 9.08811 0.615872 0.862883 1.07267 -0.0279138 -2.53031 7.51085 5.33029
257 1 Ar 6.33942 9.73727 16.7371 -0.509495 1.11052 -0.499178 -4.7808 6.70986 -0.104568
259 1 Ar 7.57895 9.88089 0.783736 -0.555283 0.18982 0.370111 3.75093 6.54571 -1.15005
224 1 Ar 8.3282 9.06667 0.714534 0.00161895 -0.667888 -0.919851 10.2596 4.00455 1.5922
261 1 Ar 8.5624 10.2065 0.0730327 1.67498 0.709722 -0.493669 -7.90118 -18.611 0.073966
222 1 Ar 9.12499 9.03824 16.5389 1.01981 -0.405082 -0.583033 11.0469 25.7709 5.41382
228 1 Ar 10.136 9.47776 0.806573 -0.129569 1.56914 0.6652 -38.6187 -4.42395 21.786
263 1 Ar 9.19067 10.2797 0.966176 1.04747 0.794028 -0.461005 -6.09965 8.19621 -23.2378
265 1 Ar 10.022 10.2954 0.153123 -0.0269182 1.4607 0.0307256 1.22147 0.163555 0.456763
226 1 Ar 10.8797 9.39687 0.179268 0.525823 -0.738003 0.427527 14.2144 7.69474 -30.4875
232 1 Ar 11.6472 9.18583 0.839765 0.988569 -0.841483 0.791084 -13.4988 -10.2506 -3.58328
267 1 Ar 10.9355 10.2377 0.858918 -0.721563 -0.0688118 -0.256292 3.53148 -5.98263 -10.3366
269 1 Ar 11.5293 10.1934 16.6794 -0.676796 -1.24117 -1.94752 -4.6278 3.73604 3.2622
230 1 Ar 12.6192 8.92931 16.6249 -0.993077 1.07365 1.0743 2.73653 14.3116 10.4559
236 1 Ar 13.1363 9.39418 0.806998 -0.336823 1.96381 -0.215119 1.01556 -2.05399 -6.97305
271 1 Ar 12.222 10.0387 0.689173 -0.434336 -1.18048 -0.61837 8.85478 -4.08897 9.72704
273 1 Ar 13.221 10.3029 0.138531 -0.523134 -0.0940217 0.502777 -7.88381 -7.10079 -11.3057
234 1 Ar 13.9875 9.52623 16.7221 0.794674 0.637251 0.425142 14.5839 -5.63347 16.1956
240 1 Ar 15.1652 9.21343 0.738721 -0.29768 -0.945398 -0.26452 -6.34502 -3.93661 6.98986
275 1 Ar 14.237 10.0074 0.9059 1.09152 2.63664 0.309055 7.38746 -2.60418 -1.52605
277 1 Ar 15.2063 10.0957 0.116772 0.493804 0.889025 -0.894693 1.6297 1.26337 0.0597075
238 1 Ar 16.0948 9.23493 0.206459 0.325038 -0.0572961 -0.0179398 -19.8328 -19.9264 -3.3617
279 1 Ar 16.0751 10.1573 0.900091 1.43754 0.377286 -0.552771 -18.2944 -14.2016 13.2846
242 1 Ar 0.826453 10.6332 0.142386 -0.0444893 1.52421 0.499645 -11.7325 -4.00543 -13.8315
244 1 Ar 0.0532728 10.8363 0.964954 0.576095 -0.420351 -1.17166 21.9102 12.4851 -11.9101
281 1 Ar 0.038219 11.5686 0.0413774 0.412892 -1.28701 -1.66435 40.0165 2.82519 45.887
283 1 Ar 0.875678 11.8635 0.99369 -0.620146 -2.02053 -0.210003 2.48143 -11.3758 -0.112782
246 1 Ar 2.55754 10.7435 0.173084 1.37193 1.39218 0.868139 -16.1182 3.79979 14.7996
248 1 Ar 1.55284 11.0379 0.719457 0.157156 0.639521 -0.297814 9.6514 -11.6388 13.7672
285 1 Ar 1.19899 11.688 16.7735 -0.252476 -0.499824 -0.823569 9.25081 -8.80601 -9.22461
287 1 Ar 2.19147 11.8183 0.949918 -0.1724 0.214793 -0.773257 12.2706 -3.55268 -2.42357
250 1 Ar 4.55454 10.5274 0.368386 -0.536379 0.339577 1.21161 16.8371 -7.01336 10.7019
252 1 Ar 3.2557 11.206 0.88069 -0.730725 -0.825053 0.957277 -7.26415 9.0102 3.00636
289 1 Ar 3.08016 11.8809 0.0606699 0.134801 -0.0169446 -0.827732 -3.99415 -8.38821 -5.73312
291 1 Ar 3.91688 11.9967 0.700208 -0.336495 0.626777 0.349766 21.3416 4.78914 -8.95928
254 1 Ar 5.48594 10.7013 16.7042 1.68628 -1.21304 1.41983 35.2974 -18.9303 2.48888
256 1 Ar 5.43184 10.9644 0.971971 -0.685175 -0.70203 -0.203847 -8.12849 -1.66368 6.39797
293 1 Ar 5.06012 11.5558 0.132035 -1.90252 0.0401128 0.376322 -13.4051 35.3885 6.32832
295 1 Ar 6.24613 11.6112 1.39854 1.46995 -0.937472 0.149361 -4.78427 -0.391537 20.9172
258 1 Ar 7.41521 10.9129 0.17564 -1.51293 0.29834 1.4158 1.82486 0.929075 6.55007
260 1 Ar 7.13657 10.7842 1.32916 1.91454 -0.177894 2.16257 8.43651 5.46605 -0.604045
297 1 Ar 6.42211 11.5736 0.414502 -0.141063 -0.354694 0.564334 17.6791 -31.9162 -18.4487
299 1 Ar 7.25511 11.8966 1.09318 -0.415567 0.949681 0.815158 0.646409 -41.0365 14.8824
264 1 Ar 8.36601 10.9062 0.812562 1.06273 -0.526132 0.322624 -35.5167 6.23187 20.9441
301 1 Ar 8.25891 11.8264 0.000187401 0.877174 -0.908592 0.0226399 6.14324 -2.23688 10.3702
262 1 Ar 9.13237 11.1216 0.22586 0.578439 0.386392 0.694021 21.7531 2.68864 -24.349
268 1 Ar 10.0347 11.181 0.814115 -1.53388 -0.781694 -1.05815 0.32164 -7.5611 4.17825
303 1 Ar 9.26074 12.0351 0.730107 -1.16032 -0.103516 -0.112336 -12.2804 2.21726 -8.15662
305 1 Ar 10.1776 12.0043 0.116516 -0.585353 0.251962 -0.405999 -14.6634 1.44646 -16.0341
266 1 Ar 10.8541 11.1856 0.0676442 0.16812 -0.767036 0.203245 7.06551 -11.1948 -0.0259445
272 1 Ar 11.5701 11.1803 1.02376 0.373873 0.260672 0.0762667 12.7733 -2.74384 -5.44296
307 1 Ar 10.8146 11.9446 0.932499 -0.333015 -1.57781 -0.977234 10.0842 3.03172 5.69737
309 1 Ar 11.8892 11.8354 0.199777 -1.23142 0.146931 0.971339 -6.48889 9.77799 -1.15719
270 1 Ar 12.3272 10.9089 0.161957 0.130206 -0.158486 -0.00634753 5.16073 9.69087 -5.33322
276 1 Ar 13.366 10.55 1.13219 -0.845445 0.00680742 -0.025771 24.9151 1.0881 -18.0127
311 1 Ar 12.7222 11.7421 1.07949 -0.302299 1.48698 0.251751 -16.7345 -1.6881 -13.0961
313 1 Ar 13.3428 11.4667 0.036096 1.2924 -0.312138 1.00393 8.02474 -3.00033 7.61277
274 1 Ar 14.2063 10.5848 16.7422 0.187091 0.508629 -0.181163 10.0506 14.1134 8.17071
280 1 Ar 15.3099 11.1389 0.831489 0.659993 2.34002 0.00531324 14.3524 -32.9757 -21.3676
315 1 Ar 14.3313 11.3642 0.852399 -0.340636 -0.119795 -0.279341 -24.0162 5.39158 0.706539
317 1 Ar 15.3389 11.8448 0.0345489 0.379805 1.72115 -1.27259 15.5449 -3.79822 2.68173
278 1 Ar 16.0949 10.8843 0.189426 1.66511 -0.527537 0.814323 -9.06664 -6.42986 -15.0858
319 1 Ar 16.2298 11.7735 1.00378 -0.75114 0.865473 -0.178988 -2.04615 1.72847 -5.43315
282 1 Ar 0.725143 12.57 0.204749 -0.0590049 -1.53335 0.828261 0.115346 14.9368 3.60079
284 1 Ar 0.174275 12.6215 1.12288 1.18147 0.0316433 -0.255935 -2.71091 7.94368 -6.86945
321 1 Ar 0.256872 13.5568 0.0512337 -1.01995 0.547269 -0.152228 7.73578 -5.88251 -5.35739
323 1 Ar 0.968184 13.5878 0.9252 0.19571 0.947532 0.405453 2.03455 -12.77 7.99747
286 1 Ar 2.20804 12.5689 0.137657 -0.181767 -1.60267 -0.0280119 -29.0759 -2.09786 12.4603
288 1 Ar 1.66921 12.6819 1.17945 0.645595 0.0330507 0.606818 14.1149 15.122 -26.217
325 1 Ar 1.31461 13.4573 16.7135 -0.127037 1.41393 0.70475 12.4829 0.815258 -4.61585
327 1 Ar 2.23184 13.6361 0.613595 0.362143 1.16406 -0.831164 0.988436 -3.60716 0.192158
290 1 Ar 3.89932 12.5559 16.3793 -0.379816 -0.366148 -0.914387 -8.66266 -19.4078 -0.782777
292 1 Ar 3.13908 12.8347 0.542905 -1.11376 1.28698 -0.0518314 -15.6817 -1.66259 1.32525
329 1 Ar 3.31261 13.4926 16.4588 -0.773247 -0.668415 -0.323561 2.55453 -12.5055 20.6261
331 1 Ar 4.0391 13.2594 0.595216 1.0727 -0.0400202 -1.04958 6.82126 13.857 20.1002
294 1 Ar 5.99582 12.4379 0.213528 1.50358 -1.32257 1.3958 -26.1279 16.5347 -8.84666
296 1 Ar 4.97718 12.7381 0.561898 0.314843 1.34772 0.0620388 -3.78686 2.94767 -13.5809
333 1 Ar 4.55878 13.3042 16.5303 -1.09487 0.0235965 -1.34324 22.7362 22.0057 -15.0598
335 1 Ar 5.3988 13.8687 0.589007 0.558819 -1.31953 -0.307416 -5.13123 -5.61149 -2.39108
298 1 Ar 7.22482 12.4307 0.28721 0.293351 0.0707442 0.252653 2.34322 12.2392 -53.6908
300 1 Ar 6.57726 12.6277 1.0747 -0.764535 0.49458 -0.69224 -7.0268 17.1439 -4.28557
337 1 Ar 6.46754 13.3629 0.322403 -1.38843 -0.4852 -0.797766 -7.97193 16.9193 -8.70935
339 1 Ar 7.43701 13.3702 0.689371 1.44379 0.59114 0.466629 3.4773 0.19654 23.6911
304 1 Ar 8.22773 12.5872 0.794451 1.76587 -1.06614 1.43448 0.24212 0.874371 2.85583
341 1 Ar 7.89855 13.5323 16.5877 0.618747 0.0709309 -0.732729 3.60905 9.22179 -9.06299
302 1 Ar 9.06415 12.7834 -0.000722277 -1.246 0.201383 -0.987495 54.4923 -14.241 51.7171
308 1 Ar 9.99168 12.711 0.925281 -0.698016 -2.63879 1.35125 5.42842 12.0754 12.4958
343 1 Ar 9.05267 13.441 0.764705 -0.391418 2.41355 -1.15731 -9.1603 34.8647 -14.7221
345 1 Ar 10.0515 13.8025 0.631438 -0.269147 2.53859 0.540425 1.37932 1.22694 -3.22201
306 1 Ar 10.8021 12.8758 0.293424 -0.64463 -0.728607 0.032019 11.6832 3.80426 -7.1789
312 1 Ar 11.7268 12.6515 0.934253 -0.624121 0.339121 1.25766 0.474264 2.54539 1.57967
347 1 Ar 10.9305 13.4622 1.21626 0.16914 0.614848 -1.31754 0.639994 5.12564 1.19061
349 1 Ar 11.9916 13.5911 0.0837042 -0.106898 -0.387359 -0.704803 1.71643 -2.36091 -7.51121
310 1 Ar 12.7723 12.4717 0.131135 0.0688792 -1.19965 -0.0676482 16.9128 -2.82402 17.2474
316 1 Ar 13.5819 12.4193 0.84996 0.49272 -0.656737 -0.421158 -23.4359 0.138376 -10.5407
351 1 Ar 12.9904 13.4724 0.989671 0.401785 -0.227334 0.540567 -4.29981 0.0788099 -17.6054
353 1 Ar 13.3665 13.604 16.7801 0.93506 -0.481751 0.678943 15.1017 -16.4407 -4.95689
314 1 Ar 14.4965 12.3834 0.386105 0.662972 -0.175007 -0.918729 -30.1425 -1.47491 -35.9519
320 1 Ar 15.2376 12.4993 0.988319 -0.599539 -1.24463 -0.00787434 36.8114 16.1178 22.9208
355 1 Ar 14.1505 13.4941 0.969088 0.855075 -2.30434 -1.46643 0.0977962 -6.26785 -2.51941
357 1 Ar 14.9812 13.4132 0.106993 -0.457275 0.0689573 1.3502 4.7985 -15.2399 -3.68545
318 1 Ar 16.001 12.6779 0.140644 1.72028 0.563895 0.704185 1.29584 -1.12554 -2.91599
359 1 Ar 16.2528 13.5642 0.672473 -1.03392 0.613296 -0.190977 -6.82053 -5.33062 33.1183
322 1 Ar 0.891509 14.5318 0.0514618 -0.328646 1.01433 1.11155 15.8972 -8.33728 -9.79287
324 1 Ar 0.25569 14.3495 0.864979 1.10122 -0.70261 0.226481 -16.0609 4.96718 -0.983435
361 1 Ar 0.126192 15.2164 0.0873193 -1.2372 0.10464 1.71029 -7.81078 6.18529 4.39054
363 1 Ar 0.807935 15.2236 1.02533 0.257126 -0.780846 0.203331 15.654 11.8269 -14.0976