ITEM: TIMESTEP
4300
ITEM: NUMBER OF ATOMS
4000
ITEM: BOX BOUNDS pp pp pp
0.0000000000000000e+00 1.6795961913825074e+01
0.0000000000000000e+00 1.6795961913825074e+01
0.0000000000000000e+00 1.6795961913825074e+01
ITEM: ATOMS id type element x y z vx vy vz fx fy fz
401 1 Ar 0.548798 1.07846 0.686715 1.59163 0.664768 -0.724506 -6.37859 27.3458 0.508315
798 1 Ar 0.098582 0.396815 16.6553 -0.21665 0.189452 1.6978 1.36844 1.33316 -10.3464
761 1 Ar 1.11887 0.169411 0.656798 -0.74595 -0.872298 0.545548 6.15972 1.20949 -21.2023
412 1 Ar 1.64411 1.03092 0.114707 0.766465 1.1932 -0.810449 18.6044 -18.044 -11.8596
49 1 Ar 2.7057 0.658574 16.7693 -0.543366 0.475894 0.166444 -2.25737 0.256754 4.80098
3652 1 Ar 2.6667 1.06651 1.33842 -0.690955 1.74972 -0.0495121 10.5503 10.4952 -0.820412
7 1 Ar 2.18962 0.23655 0.912927 0.0765763 -0.191399 -0.800694 -28.1512 0.949638 -36.1973
3607 1 Ar 1.79112 16.7087 16.6473 -0.341365 -0.136877 -0.350988 15.1546 1.31576 1.07612
93 1 Ar 3.48247 0.590525 0.786441 -0.319205 -0.560208 -0.0408166 -3.58151 1.10529 -4.23459
410 1 Ar 4.41173 1.01993 1.07429 -0.330431 1.65223 1.45366 5.67426 3.0593 7.62
457 1 Ar 5.5379 0.156944 0.643061 0.443521 0.119791 -0.196612 -18.6734 15.0398 -2.19826
17 1 Ar 4.42136 16.7408 0.317869 0.0602297 -0.107057 -0.45276 1.06774 5.78896 6.60181
459 1 Ar 6.12881 16.6516 16.607 -0.284793 -1.41288 -0.830057 -11.0264 2.39333 -6.24905
414 1 Ar 4.74526 0.899567 0.0413761 -1.18849 0.644798 -1.18962 2.72069 2.42007 2.15262
417 1 Ar 7.45684 16.7374 0.169701 -0.857282 1.36348 -0.588429 5.11326 -9.42828 6.4945
1180 1 Ar 6.23844 16.4753 1.20265 -1.41339 0.0779074 0.791764 2.13418 -1.22805 9.22863
59 1 Ar 6.55397 0.57262 0.533121 0.945676 -0.0322625 -0.107392 7.57044 -0.258257 19.9931
18 1 Ar 9.41058 -0.00534956 1.00912 -0.751699 -0.48203 0.00517072 2.89719 -8.6662 -8.0079
379 1 Ar 9.07748 0.955216 0.43739 -0.848356 0.240017 0.391924 -20.5096 6.33458 -12.9612
24 1 Ar 9.85763 1.11845 1.04213 0.396904 -0.393644 -1.28757 8.47316 8.84617 9.80482
64 1 Ar 8.32522 0.302057 0.679696 -0.250371 0.127484 -0.0244481 -6.2523 16.3588 11.5694
69 1 Ar 10.7572 1.04148 0.432112 -0.0244002 -0.286607 -0.16132 2.53432 0.877788 -5.88763
779 1 Ar 9.88053 0.487113 0.0500134 1.11856 0.291653 0.663389 3.30154 11.6083 -3.39006
31 1 Ar 11.8376 1.08355 0.188459 0.879853 0.690985 0.303572 -6.21089 1.08656 -1.75535
3627 1 Ar 10.5085 16.7344 0.691952 -1.08513 -0.680052 -0.0164978 6.77433 11.9061 8.13474
426 1 Ar 11.6627 0.167095 1.1038 1.93443 0.64888 -0.900509 -14.9732 17.0662 -1.63484
33 1 Ar 13.7456 0.221805 0.76394 1.44523 0.996113 0.0364117 -6.5582 14.3113 10.5699
34 1 Ar 13.2446 0.77553 1.64015 0.481546 -0.371775 -0.65693 19.2294 8.58964 -9.85362
473 1 Ar 13.1178 1.07798 0.638193 1.92626 0.251849 0.269941 -20.5179 -10.5238 -16.2181
79 1 Ar 14.6004 0.878322 1.14502 0.389367 -0.385094 1.15107 -2.04037 2.96972 1.09999
437 1 Ar 15.3423 1.52234 16.6673 0.675884 -1.21382 -2.55149 -0.148451 2.0085 6.87307
434 1 Ar 16.4558 1.34051 0.112087 -0.552201 1.48527 -0.295123 1.07179 -11.0619 0.679781
439 1 Ar 16.1679 1.12251 1.24165 -0.164039 -0.971178 -1.81275 45.6861 33.6222 20.3941
442 1 Ar 1.29655 1.93739 0.531058 1.03127 -0.862914 0.664657 -0.0883003 8.43022 6.07222
449 1 Ar 2.10827 1.94641 1.34397 -0.368972 -0.399623 0.356748 -3.55408 29.026 -19.89
446 1 Ar 2.53856 1.90533 0.406201 0.146648 0.23551 -0.386189 -5.4247 -1.9938 -16.8651
489 1 Ar 2.9829 2.91189 0.724508 1.20618 0.402225 1.20464 -1.44319 0.713809 -0.333519
453 1 Ar 3.98024 2.56772 1.10599 -0.26343 -0.298556 0.777935 18.6548 20.4903 40.9065
91 1 Ar 3.53166 1.7623 0.732288 1.01986 0.677156 -0.968095 -13.8387 -25.8536 -23.7442
413 1 Ar 4.4935 1.90272 0.337877 -0.115677 1.21619 -0.111063 15.5504 -5.18928 -0.0110843
15 1 Ar 5.41163 1.98283 16.4669 0.957128 -0.0453768 0.782463 -32.4496 -18.5543 4.21456
529 1 Ar 5.98435 2.66487 0.965625 -0.00135042 -1.07838 0.332501 -25.8136 -5.41606 -1.66014
490 1 Ar 6.20963 2.88018 16.6646 -1.55311 -0.0672377 -0.305822 -0.609075 0.77676 -0.349819
95 1 Ar 6.80504 1.56283 1.19156 0.191509 -0.960658 -0.000216464 20.3134 28.9229 -26.382
458 1 Ar 8.70088 1.61232 1.16976 -0.982468 -0.00668389 0.563888 -6.3997 7.56787 -13.7941
94 1 Ar 8.81062 3.14853 0.868204 1.03574 1.32861 0.648583 -8.68827 5.32956 6.04364
54 1 Ar 7.99203 2.5413 1.26438 0.856841 -0.466803 0.846868 -0.540496 -5.89536 1.28627
25 1 Ar 10.9587 1.92191 1.09485 1.28642 -0.0127606 0.707106 -1.17313 -0.652476 -4.39462
65 1 Ar 9.88875 1.7227 0.0536916 0.718318 -0.691755 -0.196658 17.5461 -3.50363 6.62967
68 1 Ar 9.56898 2.29243 0.990347 0.996676 -1.21354 -0.199648 0.937056 2.02008 -2.59318
107 1 Ar 10.3607 2.73683 0.0946832 -0.756994 0.826505 -1.05264 8.53219 16.8596 25.8455
61 1 Ar 9.28198 2.77628 0.00850867 -1.2749 1.42765 0.0301905 4.23304 4.7738 -5.56152
27 1 Ar 11.0922 2.0107 16.6774 -0.29679 -0.678611 -0.142637 13.4624 -7.47085 17.7241
67 1 Ar 11.3982 3.18302 16.6026 0.534065 -0.206056 -1.32822 -1.79285 -8.30556 2.47301
3663 1 Ar 10.9839 2.48133 15.7673 -0.691566 -0.286078 -0.766508 22.2041 5.42648 -11.0218
73 1 Ar 12.7666 2.92499 16.7572 0.443026 0.685909 -0.935947 -2.50029 24.0802 -3.92577
513 1 Ar 13.9312 2.75965 0.462061 -1.35947 -0.282421 1.2671 20.4544 -0.139545 10.5381
75 1 Ar 13.047 2.76148 0.987522 0.282562 1.07923 -0.788797 -9.11664 0.12582 10.7694
36 1 Ar 13.7599 1.78661 0.937401 -0.627654 0.061286 -0.665275 13.7743 9.13287 18.8208
74 1 Ar 14.7737 2.1911 1.01007 1.35915 -1.15303 -0.381501 -5.57676 -22.8615 -32.3098
441 1 Ar 15.912 2.10355 0.990522 -0.377986 0.148008 0.164431 -8.91544 7.3317 14.5436
402 1 Ar 0.243663 2.19666 0.630685 0.545108 -0.71971 1.54969 -8.88547 -11.6683 9.08134
525 1 Ar 0.875818 3.00769 0.523545 -0.421853 -1.06321 0.455845 21.6808 8.6747 -9.13574
120 1 Ar 0.406998 4.09165 0.8754 -0.500348 -1.05774 -1.40663 1.53154 -2.00039 -0.519105
521 1 Ar 1.83362 4.30068 0.897481 -0.196456 -0.268837 -0.0463161 5.20601 6.89894 -3.01882
50 1 Ar 2.89445 4.08116 1.05318 0.0770506 -0.280681 -0.0335123 9.3163 -14.5018 -13.7616
82 1 Ar 2.43502 3.80354 16.5618 -0.435324 -0.0493357 -0.368298 -10.0698 9.66116 5.40814
486 1 Ar 1.90724 3.09549 0.964038 -0.0399519 -0.148565 -0.686102 3.71494 -0.352592 -4.98497
530 1 Ar 4.0007 3.66873 1.74225 1.96388 0.818643 0.350364 1.22584 -7.15289 -14.6238
92 1 Ar 4.24778 3.77891 0.598692 1.18251 0.0849315 1.63608 -0.410187 -4.07395 -7.01326
90 1 Ar 5.28931 4.60928 16.4907 0.373765 -0.614573 -0.261051 -6.42968 16.1707 3.62513
131 1 Ar 4.96339 3.28578 1.25203 -0.700377 -1.6833 -0.114847 0.0304913 -7.50882 4.0646
3689 1 Ar 5.13751 2.85562 0.144383 -1.11028 0.950754 1.40899 -8.81466 9.76288 9.68228
3692 1 Ar 5.53712 3.85763 0.505073 -0.319177 1.61205 0.17385 2.02484 -4.65547 -3.25796
136 1 Ar 6.64998 4.11054 0.725214 0.625251 -0.505226 0.770757 15.0909 -47.047 -3.019
500 1 Ar 6.94728 2.92831 0.98577 0.798852 0.299087 0.0532106 6.0032 -5.29478 -1.06435
144 1 Ar 8.65861 4.32396 1.25245 0.290945 1.48426 0.354837 0.483855 -1.19605 -3.22707
493 1 Ar 8.11599 3.78975 0.254115 -0.180738 -1.82624 -1.14939 -5.08677 0.475936 1.53826
135 1 Ar 9.1016 4.12557 0.143515 0.672643 -0.889209 1.08752 8.76392 4.00166 15.6002
102 1 Ar 9.79277 3.55845 0.939258 -0.413335 -0.425106 0.00197386 4.75795 0.230998 -1.04838
103 1 Ar 10.9052 3.62516 0.722588 0.16726 1.23589 -0.113603 -3.40551 -9.47507 11.2494
112 1 Ar 11.2415 4.90404 1.08654 -1.28945 2.10358 -0.599953 2.45413 -3.72905 6.76836
110 1 Ar 12.3759 4.21159 16.5308 -0.0578729 0.602122 0.43108 -4.84709 -4.37335 0.35987
155 1 Ar 14.3103 4.50651 0.752201 -0.269672 -0.584415 0.412852 -4.49703 -11.9709 -4.43567
76 1 Ar 12.2617 3.70709 0.914834 0.797014 -1.16429 1.48855 0.719802 -2.76899 -0.146585
553 1 Ar 13.4587 3.72684 0.508764 1.13724 -0.203741 0.208475 -2.61221 -4.20032 -12.2547
115 1 Ar 14.5722 3.69615 16.6558 0.317422 -0.133449 -0.66441 -21.749 18.3477 44.6834
114 1 Ar 15.571 3.23465 0.848422 -0.615587 -0.0152504 0.645687 -15.7314 -9.08338 -1.63644
159 1 Ar 15.2254 4.30756 1.26501 0.326573 0.22836 -0.335978 -2.63366 -6.31263 2.40982
509 1 Ar 14.5043 3.49564 1.11451 -1.30084 0.628667 -0.634461 -4.0812 -3.70213 -0.536822
117 1 Ar 16.3109 3.6216 1.4217 0.0971926 0.806044 0.124552 4.53108 12.3784 12.8489
84 1 Ar 16.6701 3.25127 0.393386 -0.0820381 1.12379 -0.844951 -7.88389 3.41769 -0.440942
81 1 Ar 16.133 4.4492 0.771841 -0.386666 -0.885028 0.548836 7.38934 -4.92622 -5.22265
124 1 Ar 0.155256 5.10207 0.546707 -0.874946 0.406396 -0.361393 8.90085 8.09748 6.45503
163 1 Ar 1.2097 5.21434 0.354343 0.687805 -0.872837 -0.562694 13.6073 -0.106985 11.2086
565 1 Ar 2.54633 5.04258 1.24449 -0.799192 0.0444577 0.0628297 11.1182 -11.4431 7.10604
128 1 Ar 2.5965 6.0535 1.01495 1.1813 0.343909 1.72496 -7.70905 20.3996 -1.7827
526 1 Ar 2.40956 5.00296 0.18881 -0.331562 0.0680922 -0.744437 -53.1985 4.34425 -3.18208
165 1 Ar 4.03948 4.67763 1.13543 1.55074 0.393568 -1.11418 -9.40905 9.42853 3.43216
491 1 Ar 4.47967 5.87124 1.42849 0.567605 -0.966404 1.03002 -11.9828 -15.2637 3.47966
129 1 Ar 3.18592 5.63358 0.282605 0.471353 0.324003 1.10805 22.7916 1.48394 5.82945
3731 1 Ar 4.25326 4.82656 0.0406355 -1.87627 -1.46696 1.26373 1.14928 -2.16616 17.8129
133 1 Ar 5.05157 4.40021 1.27866 0.0112452 0.110397 -0.520691 3.37425 3.25064 6.82729
96 1 Ar 6.24092 4.23413 16.5827 0.5893 0.0493252 0.285646 -3.48689 1.84724 0.786029
3735 1 Ar 6.31793 5.80257 1.23993 -0.23686 -0.052952 -0.56457 18.239 -1.40538 -5.87189
130 1 Ar 5.04261 5.37425 0.657461 0.0526091 -0.628861 0.665781 5.32438 -6.19888 -11.4242
533 1 Ar 7.25236 4.34724 16.5441 -0.797316 0.346055 -0.143911 12.6965 23.4139 5.93903
573 1 Ar 7.05597 5.19181 0.488043 -0.0206785 -0.000390637 0.687897 -25.4612 -7.52615 -7.28248
538 1 Ar 7.86181 5.90781 0.230332 0.13729 1.30866 -2.11404 -10.3382 -8.65099 -2.94459
534 1 Ar 7.9925 4.83845 0.560078 -0.486731 0.486375 0.799093 46.9699 8.24142 -33.3558
544 1 Ar 9.13235 5.38906 1.1651 -0.0450526 0.483292 0.978015 -1.58782 17.897 -29.3462
541 1 Ar 9.52538 4.79942 1.84353 -0.308163 0.195949 0.0314853 9.03389 -24.3129 26.5833
145 1 Ar 10.0258 4.65404 0.906374 -0.701266 0.0405593 -0.524125 3.42689 -4.14845 -3.31789
148 1 Ar 10.0076 5.68496 0.558888 0.331722 -0.502199 -0.0399955 -5.10937 19.6204 12.0509
546 1 Ar 11.2651 6.00349 0.712928 0.278999 0.799373 -0.714773 -5.42129 7.44101 13.7643
147 1 Ar 11.6734 5.44663 16.7599 1.27255 0.549397 -0.422722 37.0872 1.91823 6.62621
3711 1 Ar 10.7726 5.14019 0.183342 -0.534804 0.311189 -0.304065 -11.6479 -11.5438 -2.9584
151 1 Ar 12.2233 5.41043 1.41945 0.342904 0.24078 -0.492853 -7.67224 -0.660217 -2.03515
591 1 Ar 12.7781 4.70272 0.762455 -0.0387779 -0.375824 0.177452 -0.375423 -6.95771 -4.60884
191 1 Ar 12.903 5.80452 0.707911 -1.08012 -0.267671 -0.775341 0.979649 6.61161 -2.56537
599 1 Ar 14.835 5.30223 0.326136 -0.768714 -1.47121 -1.04428 14.0278 14.2287 6.88051
596 1 Ar 13.7772 6.25592 1.13196 -1.11587 -0.465665 -0.610861 -7.4882 -58.3272 -17.1619
121 1 Ar 15.9784 5.45925 0.401693 -1.38151 -0.234036 0.0817365 -0.548595 12.2234 -41.8331
518 1 Ar 15.6888 5.31058 1.31744 0.10325 1.13871 0.224643 -12.6939 -0.170174 38.3082
598 1 Ar 15.3156 6.56179 0.722335 -0.477731 0.549386 -0.643109 10.813 -16.9275 -21.166
605 1 Ar 1.03275 7.44531 0.994959 1.03441 0.507908 0.244857 -1.08 -1.26994 -20.7432
158 1 Ar 16.7423 6.58989 0.885725 -0.771749 0.693849 0.42412 -2.12303 4.88054 3.24038
205 1 Ar 1.1696 7.62926 16.5495 -0.128769 -0.94428 -0.187266 3.82475 19.3033 33.7405
563 1 Ar 0.952583 6.26063 0.756369 1.58772 -0.234299 0.466236 5.22951 -26.644 63.867
522 1 Ar 1.84818 7.02944 0.378575 -0.30718 -1.95811 0.66789 5.41646 0.852853 3.24145
132 1 Ar 3.05891 6.67887 -0.00695725 0.23064 0.876754 -0.921158 -7.03644 -2.23728 -1.21108
609 1 Ar 2.0433 8.19753 1.2707 -0.227864 0.644092 1.2475 -1.93545 -4.86367 11.1135
173 1 Ar 3.63643 6.60381 0.928542 1.18887 -1.7638 0.574091 2.269 -4.36836 -1.08277
174 1 Ar 4.51961 7.00436 0.377821 -0.622916 0.0112275 -1.25134 -6.97854 4.26945 2.97328
170 1 Ar 3.57117 7.59475 16.5974 -0.30842 -0.989605 -0.79599 10.0344 0.173421 1.67022
610 1 Ar 3.71879 7.77233 0.887664 0.467076 0.390677 -0.778864 5.29981 -13.2618 -28.4372
178 1 Ar 5.93626 6.64162 0.703213 1.65653 0.709012 -1.21916 2.14802 -6.78232 4.48893
3375 1 Ar 5.43714 7.49603 0.250377 -0.123504 -0.431633 1.26221 8.59082 6.78489 14.455
618 1 Ar 7.25897 6.86948 0.856382 1.39987 -1.0411 1.58737 -38.8449 -30.1063 -15.3306
141 1 Ar 7.67077 7.42227 0.0795264 0.0843963 0.954012 -1.15529 5.53305 8.06758 -8.95563
180 1 Ar 8.43526 6.29827 1.20052 0.0954794 -1.30459 -1.89558 3.50095 3.28592 -5.87587
183 1 Ar 8.72482 6.35382 0.00113649 -0.528835 -0.352055 -0.38751 21.0326 23.9942 -9.66372
219 1 Ar 8.62746 7.25091 0.694406 -0.57949 -0.825267 0.0988364 9.27976 -1.69776 8.1481
585 1 Ar 9.6938 6.3837 1.24952 -0.369257 -1.58657 -0.372871 -5.83354 8.42006 10.3985
586 1 Ar 9.76476 7.87347 1.2961 0.330818 -0.67762 -0.163871 -3.98361 12.1059 -15.1127
3785 1 Ar 9.62018 7.24509 0.167819 1.26185 -0.326977 1.30464 0.52416 -1.49662 4.65458
181 1 Ar 10.6654 6.92036 0.761658 -0.864568 -1.16394 -1.28837 -6.20404 4.14528 -7.58873
187 1 Ar 12.1364 6.70113 0.449001 -0.462464 0.45608 0.799843 -7.5697 -13.4296 8.23898
188 1 Ar 10.5252 8.12313 0.580465 -1.97744 2.22907 -0.962577 -7.06429 0.556636 -9.99791
229 1 Ar 12.4296 7.73681 1.4831 -0.156413 -0.402116 1.44505 -2.06983 34.3692 -13.8403
190 1 Ar 13.0991 7.01029 0.717275 0.869993 -0.175685 0.0513035 -8.17441 -0.615204 2.47108
3790 1 Ar 14.1223 7.12554 0.826925 -0.821786 0.644423 -0.0222852 13.1806 37.2314 -11.3215
3750 1 Ar 12.685 7.06179 16.4118 1.10593 1.17991 0.812057 -4.86039 5.82344 3.34411
3760 1 Ar 14.2575 7.83755 16.724 -0.694733 0.206743 -0.223283 -11.6378 -7.00642 4.034
199 1 Ar 15.0725 7.56713 0.618066 -0.481177 1.33349 -1.05627 4.18795 5.1126 -9.98949
560 1 Ar 14.6983 6.58353 1.50362 -0.791898 0.953615 0.872651 -7.68431 17.2653 23.9133
594 1 Ar 14.5208 7.41857 2.11328 -0.157813 -1.25718 1.758 -10.9529 23.044 -47.6357
3799 1 Ar 0.246459 7.4308 0.182797 0.504191 0.592925 -0.24335 -3.05054 2.70831 3.79542
597 1 Ar 16.0191 7.30203 1.24565 -2.05637 1.11623 -0.155265 -10.5338 -3.47549 -5.40646
608 1 Ar 0.637764 9.13889 1.38034 0.398592 -0.788616 1.0306 -10.24 3.53052 5.26681
207 1 Ar 0.910506 8.4458 0.6566 -0.457158 -0.0197176 -0.776107 4.88382 -12.9908 -2.26419
201 1 Ar 0.290917 8.7555 16.5872 0.269653 -0.0840252 -1.04563 -3.89557 -8.58168 4.43131
167 1 Ar 2.29626 8.00994 0.270488 0.0623349 0.968654 -0.683036 0.154886 -2.83748 -5.30339
210 1 Ar 2.94685 8.73075 0.955967 -0.160908 -0.945726 1.51252 12.6502 -17.4998 -0.134146
3772 1 Ar 4.59513 8.13801 0.337414 0.0518231 0.290303 -1.36457 -7.6616 -21.7656 5.06924
211 1 Ar 4.27677 8.49659 1.3007 -0.16521 -0.250289 0.37433 3.98047 0.641795 24.6104
3774 1 Ar 6.30946 7.54272 1.03195 0.0610204 0.819297 -0.562872 -3.16509 -5.48637 -6.57659
651 1 Ar 5.54989 8.69431 0.659432 0.642093 -1.11896 -0.0276612 19.6728 -11.4987 1.69416
620 1 Ar 5.12281 7.79526 1.35165 1.59803 0.265999 1.03252 3.59374 -1.25876 -13.1615
215 1 Ar 7.50482 8.95619 16.6935 0.341237 -2.25404 0.262095 9.94494 -0.602408 6.01247
297 1 Ar 6.63314 9.14727 1.33389 -0.915146 0.240079 1.42497 -22.8424 10.6662 -10.4072
224 1 Ar 7.42749 8.55975 1.40478 0.487227 -1.07712 -0.316746 20.8305 -24.5485 -7.43976
3779 1 Ar 6.74522 8.28834 0.448296 -0.978427 0.215877 -0.354756 7.46391 7.59146 -2.12992
3821 1 Ar 8.37237 8.38415 0.701623 0.658911 1.71765 -0.939284 -14.2809 1.74389 -5.99908
225 1 Ar 9.3657 8.34723 0.387575 -0.25482 0.435594 0.7738 6.05112 -12.6473 0.4684
582 1 Ar 10.0502 9.09545 0.894959 0.384027 0.241119 1.13971 9.83913 -21.9175 8.58881
222 1 Ar 9.02601 9.22802 1.15738 0.845377 0.538206 -2.22253 -11.3469 -1.64654 -14.0232
3791 1 Ar 12.4274 7.95692 0.315006 1.48776 -0.199251 -0.78397 -1.54029 -15.5078 8.01237
3836 1 Ar 11.5088 8.09825 0.911323 -1.18075 1.21564 0.653923 6.841 -9.04637 12.1734
3796 1 Ar 12.3003 8.8301 1.15934 1.52284 0.454049 1.00506 -3.95634 -7.69832 17.0156
195 1 Ar 13.4254 8.03528 0.68025 -0.477407 0.476311 0.411399 -3.34083 -10.4689 7.24595
636 1 Ar 13.4263 8.99314 1.12806 0.123967 -1.02469 0.628707 -11.2812 -14.3364 22.0916
197 1 Ar 14.3722 8.25146 1.12833 -0.80856 2.05877 -0.205481 -0.486538 2.62319 1.72029
237 1 Ar 13.8544 8.86395 0.200155 -1.34105 0.45968 -1.29975 14.8094 -3.00668 -15.7985
164 1 Ar 16.1278 8.16934 0.41738 0.711483 -0.303448 -0.0595855 -5.60046 4.37198 -3.17996
3803 1 Ar 14.8265 9.38032 0.337414 -0.0865109 -0.287935 -0.153327 -0.00804997 -16.0841 -17.6343
240 1 Ar 15.8357 9.08977 1.10335 0.14361 -0.571025 0.766165 -2.19405 -15.2843 -0.186669
3808 1 Ar 0.053593 9.79845 16.6819 -0.91109 0.150929 1.0431 -9.45309 6.84876 -3.93044
208 1 Ar 0.95465 9.42393 0.275343 -0.407707 0.808926 -1.34431 7.67924 17.7097 10.9016
641 1 Ar 0.980719 10.0483 2.13168 -0.98176 -0.802787 1.44003 -22.4049 -8.52671 -20.0331
242 1 Ar 1.90348 9.56495 16.044 -0.453053 0.189874 -1.58428 18.0127 6.62649 37.355
612 1 Ar 2.05224 9.06684 0.638096 -1.053 -0.224325 -0.574209 -10.9601 4.42203 -38.2554
212 1 Ar 1.85851 10.2689 0.739843 0.58861 -0.660784 0.0922312 -25.4487 13.7172 -17.2832
213 1 Ar 3.7998 9.23444 0.698357 1.27814 0.11798 0.544055 5.721 1.13126 -17.8575
649 1 Ar 3.64161 10.3165 0.81164 -1.94625 0.0466279 -0.855224 7.58986 8.37625 -7.66621
1010 1 Ar 2.70315 9.88678 1.03387 -0.537409 -0.302797 0.447911 27.5704 -23.417 16.8251
3812 1 Ar 3.00477 9.46952 0.0737172 1.58053 -0.705489 -0.408082 -6.82027 1.22386 -4.50985
653 1 Ar 4.73196 9.37846 1.08652 0.453875 -0.679505 0.907326 20.5075 -0.0282907 -3.74946
3856 1 Ar 4.92357 10.1157 0.272628 1.00199 0.317889 1.0673 4.67738 9.07344 4.16332
3815 1 Ar 6.57049 9.44182 0.0559733 0.514737 -1.50155 -0.51103 -2.70232 2.83924 4.20367
655 1 Ar 6.15236 10.5595 0.495769 1.09588 -0.448149 -0.184105 -17.2132 -10.392 -18.482
3820 1 Ar 7.1437 10.4855 0.633615 -1.5921 -0.101576 0.0810441 13.8386 -0.83391 0.587958
218 1 Ar 6.69675 10.1652 1.91695 -0.179217 1.12963 -0.095863 2.46733 -13.6742 -31.9751
253 1 Ar 5.71767 9.6986 1.4262 -0.160691 -0.44927 -0.345436 -1.79077 11.3608 -1.9496
255 1 Ar 7.29161 8.93396 2.35303 0.408207 -0.321393 0.718884 -11.4139 4.09598 15.5328
223 1 Ar 7.58165 9.5129 1.02229 0.64032 0.277189 -0.859138 10.8668 12.3332 -6.93486
665 1 Ar 8.15996 10.6417 0.860847 -1.06811 -0.457368 -0.531205 -13.887 -26.6769 8.6355
3859 1 Ar 8.49446 9.36414 0.25666 -1.14121 1.41911 -0.107861 -24.8234 -0.868906 5.96334
3784 1 Ar 9.08345 10.2273 0.463666 -1.09403 0.309406 -0.300441 -16.6241 -6.24451 4.61264
669 1 Ar 11.2625 9.18932 1.10703 -0.15829 -0.958368 -0.48051 -1.50662 -4.54297 0.951268
626 1 Ar 9.96597 10.1636 1.47289 1.28567 -0.955871 0.682942 10.6943 -16.7032 -4.45573
267 1 Ar 10.949 10.6936 0.909735 2.41907 1.02644 -0.837859 1.82491 -6.76349 -2.63112
228 1 Ar 10.0635 9.94853 0.385954 -0.63496 -0.677421 -0.228282 26.8501 32.7282 -7.15373
672 1 Ar 12.2428 9.89155 1.33047 -0.682412 0.276867 0.463986 2.97357 2.50824 -3.25408
3907 1 Ar 11.7937 10.0345 0.24451 0.558869 -0.63782 -0.599391 -22.257 -6.79884 27.6017
230 1 Ar 12.7191 8.9589 0.246231 -1.39181 -0.838765 0.553423 15.7962 14.425 -19.3721
3871 1 Ar 12.1013 10.8362 2.05423 -0.972259 -0.543536 0.412838 -9.64009 -31.1354 -0.392385
3795 1 Ar 14.8283 9.27126 1.40464 0.164824 0.0256003 -0.431264 -9.27508 -2.16135 1.706
194 1 Ar 13.9795 9.74756 0.710508 -0.242987 1.19784 0.291326 2.78858 29.171 -5.34177
315 1 Ar 14.7183 10.7791 0.565014 -0.370862 -0.944232 0.346436 39.7544 -17.9626 -3.23326
234 1 Ar 15.5701 9.99535 0.665877 -0.546767 2.32994 -0.630184 2.96568 7.44264 -23.284
717 1 Ar 16.6056 9.68598 0.867685 -1.48044 -1.0451 -0.118903 16.3267 13.7916 10.6961
680 1 Ar 15.6184 9.97924 1.65023 1.53018 0.86251 -1.16743 17.8858 -9.79531 29.9338
279 1 Ar 0.825155 10.2995 0.844933 -0.301745 -0.0876178 0.203822 -10.885 -2.14892 9.50931
248 1 Ar 0.228387 11.7955 1.10814 -0.249071 -0.446681 -0.199101 0.359574 -7.09978 13.848
241 1 Ar 0.319802 12.0956 0.12932 -0.968809 -0.787684 -0.291049 -12.3633 3.39326 -2.43913
245 1 Ar 1.24397 11.3817 1.21628 0.301141 -1.48909 0.796489 1.64732 0.473024 1.38484
287 1 Ar 2.31541 11.8223 1.40021 -2.41475 -0.137887 -0.282337 11.4461 -13.1956 18.2128
331 1 Ar 2.82236 11.4179 0.547275 0.117965 -0.905397 -0.0335951 1.82523 -4.84195 -9.92896
725 1 Ar 1.72375 12.2843 0.718648 0.830442 -0.0964985 -0.835384 -10.0172 4.83608 -14.3431
1089 1 Ar 4.52819 11.5267 1.10193 1.73559 -0.415574 -1.0928 10.5063 -0.567356 -32.9897
1090 1 Ar 3.54524 11.7243 1.22629 -0.929232 0.0698812 0.0481532 -19.6942 15.9303 -2.97877
249 1 Ar 3.46291 12.3303 0.231488 -1.16633 -0.298428 -0.368078 10.6061 -9.13638 -2.36769
291 1 Ar 3.91424 11.3839 0.210004 0.613116 1.07017 -0.8302 0.268755 -13.4088 -4.86124
250 1 Ar 5.43797 12.0271 0.96559 -1.20524 -0.0328025 1.10216 -0.016886 -5.34922 -10.5638
257 1 Ar 6.55466 11.4907 0.851264 0.0441712 1.08355 0.241232 -1.18821 4.2212 4.35272
693 1 Ar 7.02434 12.0934 0.106844 -0.214415 -1.88945 -0.667274 -8.96688 -3.35441 -11.7148
259 1 Ar 7.69972 11.5606 1.23665 0.653728 -0.967871 0.384359 -0.525101 3.68318 -2.79965
258 1 Ar 7.69244 11.251 16.7367 1.09309 -0.069426 0.544316 -25.5905 -0.018064 9.5332
668 1 Ar 8.78231 11.3797 0.687216 0.00928903 0.474454 0.617807 18.4161 26.7267 -1.12814
666 1 Ar 9.77913 10.9294 0.74811 0.110788 0.0913195 1.05165 -9.82339 -3.86947 -22.5037
707 1 Ar 10.4728 12.2545 0.330947 -0.389845 -0.0276384 -0.00637438 -37.6785 19.935 12.804
272 1 Ar 11.479 11.5797 1.30745 -0.987616 0.360284 -0.0191101 -9.12617 -13.2716 -6.78898
3866 1 Ar 11.2957 11.7585 0.230492 -0.156854 0.82342 -0.80773 42.6062 -17.2417 5.73879
3872 1 Ar 12.0861 11.0558 0.308967 -1.56321 0.00329381 -0.161543 3.81968 0.362098 2.5907
270 1 Ar 12.4841 11.8071 1.0615 -0.356629 0.216496 -0.847552 -8.71715 4.83332 2.39552
3949 1 Ar 13.142 11.9097 0.283273 -0.178872 -0.829249 -0.436208 -7.15557 23.7091 23.0211
273 1 Ar 13.0572 10.9132 0.859679 0.578545 1.36978 -0.678955 3.53162 12.935 8.13607
3435 1 Ar 13.9053 10.5589 16.7392 0.388188 -0.170816 -0.148323 -36.47 6.51934 2.68194
353 1 Ar 13.0459 11.3003 1.88035 0.42865 -0.539733 -1.24652 13.5835 -3.63505 -4.15998
3916 1 Ar 13.9637 11.4242 0.577428 -1.1563 0.652776 0.331776 5.99569 22.016 3.60398
3884 1 Ar 14.3863 12.393 1.3416 -1.55786 -0.325451 0.541658 11.9895 9.62109 -23.7505
319 1 Ar 16.1437 11.6681 0.465047 0.266742 0.852018 -0.263345 -1.02495 0.160386 -24.5175
718 1 Ar 15.7036 10.9503 1.1188 0.867442 -0.00161957 0.319452 -1.09759 -6.71401 -1.01713
278 1 Ar 15.0771 11.9962 0.563985 -0.765388 -0.0414906 -1.66728 -9.86382 -14.4246 -21.4039
282 1 Ar 0.763186 12.7371 1.00109 -0.323498 -0.150676 -0.552793 15.0576 -5.73551 -11.9242
285 1 Ar 2.80647 12.6768 0.927507 -0.228248 0.299944 0.827568 -20.4368 -5.25561 6.09453
1171 1 Ar 1.76761 13.2953 1.09733 -0.110094 -0.0983349 -0.779688 -2.84862 -4.79608 5.74435
732 1 Ar 3.37105 13.4962 1.16759 -0.983275 0.150281 -0.637525 -2.60292 18.4298 -5.92144
690 1 Ar 4.25479 12.7221 1.16514 1.67208 0.259443 0.59008 0.50755 -12.8418 -2.36004
332 1 Ar 4.31511 13.6819 0.796144 -0.628735 0.133818 1.30969 13.4339 10.782 -7.10303
729 1 Ar 5.22956 13.0631 0.387014 0.424938 0.904214 -0.582725 -6.25916 -16.2596 4.1001
1094 1 Ar 5.25768 13.594 1.36423 1.31716 1.05462 -0.659691 -9.98018 -22.9375 -11.0864
333 1 Ar 5.60864 13.447 16.2094 0.105958 0.128545 -1.19443 -18.7194 8.0357 6.81652
694 1 Ar 7.32606 14.095 0.543557 0.216141 -0.479497 -0.782145 -4.66851 -4.46002 -12.1771
295 1 Ar 7.44351 12.8997 0.538955 -1.2549 0.627515 1.32377 -22.275 7.93107 30.9779
700 1 Ar 6.10833 12.8256 0.982104 0.148237 0.826314 0.360122 -4.17853 -4.16552 -3.00176
302 1 Ar 8.23578 13.3182 0.142713 0.0367763 -0.355409 1.61986 26.2442 10.342 1.0108
3864 1 Ar 8.11633 12.1615 0.220989 -0.0822909 -1.57971 1.2157 14.8437 4.78246 -1.30606
3903 1 Ar 9.01131 13.3267 1.19078 0.804479 -0.880492 0.0671691 7.07957 -5.37533 3.98539
266 1 Ar 9.2733 12.7895 0.262879 -0.18488 1.43659 -0.0187047 0.369802 7.0165 -6.70331
308 1 Ar 10.3596 12.6543 1.43503 0.147457 0.474254 0.0737005 0.289277 -12.0154 -4.66534
305 1 Ar 10.0268 13.6154 1.61745 -0.925007 -1.09115 1.43467 1.99907 8.61371 -0.3562
3947 1 Ar 12.1754 12.3818 16.7292 -0.52723 1.74209 0.126615 1.51187 -2.42135 46.5972
3951 1 Ar 11.0873 13.403 1.28933 1.05319 1.37179 0.012141 -2.23343 14.1451 -1.22906
385 1 Ar 11.6357 12.5803 0.974445 -0.0891557 0.168123 -0.627509 7.95219 -2.55437 -4.89912
310 1 Ar 12.6611 12.9995 0.633087 0.773466 0.0077945 -0.409616 16.545 -10.8732 -1.43951
360 1 Ar 13.29 12.4458 1.374 0.22554 0.15515 -0.243709 7.7446 -3.95467 -2.4356
3920 1 Ar 14.492 13.5092 1.56651 0.104551 0.620121 -1.2961 -2.64684 -4.27081 7.15224
354 1 Ar 13.8976 12.6007 0.486752 0.807608 -1.53328 1.08627 -1.56923 12.7216 -22.0474
3959 1 Ar 14.7966 13.4206 0.326585 -0.27751 0.966523 1.80692 0.727041 -4.01232 2.58296
357 1 Ar 15.4538 13.6915 1.16439 1.73048 1.62216 -0.360863 5.87288 39.5389 6.97797
322 1 Ar 15.9492 12.547 16.7177 -1.89406 -1.17937 0.506888 17.0134 6.19236 27.7159
321 1 Ar 16.571 13.1225 0.999474 1.07474 0.600473 1.22773 -34.6976 -1.54411 69.4943
318 1 Ar 15.5744 12.7293 1.03528 0.17854 0.470284 1.23167 -5.311 8.71123 -9.76052
328 1 Ar 0.747512 13.7768 0.811945 -0.580558 -1.16814 -1.36942 2.33798 12.7563 10.6702
765 1 Ar 0.170856 15.3152 0.938352 -0.396392 -0.27066 0.214688 5.55039 0.133146 4.96307
368 1 Ar 1.10646 14.8752 0.563382 0.833406 0.280639 0.46351 -7.5136 22.2837 6.63389
768 1 Ar 2.08412 15.238 1.49129 0.181599 -0.121581 -0.731266 -2.55291 10.1884 -7.77702
367 1 Ar 2.75632 14.4802 1.19098 0.0759941 1.51205 0.227515 -6.86469 -4.87525 -3.39968
726 1 Ar 1.81276 14.1477 0.523668 0.0894288 -0.815484 0.267403 10.6138 -4.02299 -8.55667
371 1 Ar 3.17134 14.4075 0.19865 -0.39502 -0.150843 -0.0235149 0.780398 -8.69247 -8.17671
336 1 Ar 4.28119 14.6595 0.273926 -0.0509532 -0.00625951 0.730761 2.06615 5.70723 -7.33778
730 1 Ar 3.25725 14.1153 2.04775 -0.500181 -0.791718 -1.92591 0.681052 -4.62982 2.75528
335 1 Ar 5.23488 14.0673 0.344887 -1.5729 -0.28007 0.305546 -29.7724 20.0912 -11.7379
734 1 Ar 5.67448 15.0192 0.756624 0.341128 -0.0460676 -0.384072 -1.29112 -9.84881 8.38592
735 1 Ar 4.91012 14.5558 1.51922 0.475627 1.42824 -0.383762 -1.77589 7.56093 -0.416326
1177 1 Ar 6.0274 14.0495 1.83409 1.01203 -0.909494 1.07259 15.4445 1.95712 16.3655
733 1 Ar 6.12159 14.0238 0.788463 0.978633 0.910741 0.226251 27.6632 -6.49513 1.58866
780 1 Ar 6.48228 15.4814 1.53053 -0.127407 0.624014 -0.0976671 3.50417 -23.0015 -30.3333
1137 1 Ar 7.84565 15.3365 1.20432 -0.200277 1.02689 -0.145702 -17.5194 -5.69893 -8.35034
343 1 Ar 8.83681 15.2983 1.15015 0.923744 0.434852 -1.05441 32.8542 31.5247 -8.02311
747 1 Ar 8.77565 14.3232 0.949766 -0.821952 0.109301 -0.562621 6.48346 -29.0341 9.21969
337 1 Ar 8.32101 14.854 0.230868 -1.19792 0.857226 -0.220717 -4.60907 -0.556651 -7.92322
346 1 Ar 10.9792 14.4588 0.922482 -0.106279 0.027769 -1.11989 -35.4971 2.06079 33.78
342 1 Ar 9.41135 14.9385 0.232217 1.18456 -0.635185 -0.122198 0.36748 18.5687 3.61758
345 1 Ar 11.5971 14.3598 1.75285 0.682966 0.297678 1.51473 -1.66612 5.33099 -10.8047
348 1 Ar 11.8807 14.5375 0.524795 -0.230573 -0.594235 0.00648183 27.6158 6.0718 -4.5119
786 1 Ar 11.3346 15.4652 0.645209 0.63254 0.547719 1.4178 7.71703 -10.513 0.879738
3910 1 Ar 10.8837 14.2767 16.7527 2.22976 -0.103889 -0.603952 1.22614 14.424 -30.9008
3912 1 Ar 13.0195 13.6218 16.5834 -0.364748 0.710337 -1.46468 -11.1884 24.457 20.0668
393 1 Ar 12.9302 14.2937 0.794256 0.0560736 0.781391 1.23501 -10.693 13.9032 -4.34975
350 1 Ar 12.1302 13.6232 1.24566 0.819919 0.533665 -0.160774 4.2784 6.65467 6.50578
391 1 Ar 13.5403 13.5388 1.07626 -0.529454 -0.630634 0.760911 9.06399 -20.9863 -11.0236
4000 1 Ar 13.8963 14.5004 1.42519 -1.62534 1.12824 -0.635793 -2.65887 5.11103 4.80965
400 1 Ar 13.642 15.1342 16.6562 -0.711386 0.103042 0.411782 17.3369 10.733 -7.49477
3591 1 Ar 14.0005 14.266 0.350793 -2.43901 0.0729361 0.788862 2.85638 -1.19975 4.27942
758 1 Ar 16.6123 14.3059 0.533787 -0.537876 0.0434592 -0.308822 16.8012 9.66876 3.7857
395 1 Ar 16.0413 14.7162 1.36409 0.510608 0.412206 0.269882 -3.97903 0.00211086 7.17297
358 1 Ar 15.2379 14.5038 0.217552 -0.838065 -0.138793 -0.354025 3.73413 -24.8858 6.26873
3 1 Ar 1.10107 16.0009 1.03184 -0.507369 0.106123 -0.565602 1.15797 -13.1274 3.6278
4 1 Ar 16.5111 16.2752 0.252642 -0.564294 0.0640472 0.745801 -3.12131 -13.4323 -19.8988
399 1 Ar 0.0981521 0.208936 0.864227 0.345664 0.909119 0.372685 -15.3397 -14.4849 30.071
364 1 Ar 0.788656 16.35 16.7402 0.813396 0.330739 0.0628715 -13.1681 -21.7512 -11.2699
405 1 Ar 3.18308 15.7234 1.58847 0.0405992 0.0607721 -0.220649 -11.2024 3.69244 25.688
361 1 Ar 2.31659 16.0326 0.548552 0.885959 -0.562451 -0.0940134 -26.5402 -18.0875 1.49263
762 1 Ar 3.29638 15.3401 0.684744 -0.500641 -1.6177 1.03983 -3.91455 -23.5011 -19.8786
409 1 Ar 3.254 16.3479 0.513988 -0.441232 -1.60644 0.636233 18.149 27.499 -1.90916
770 1 Ar 3.83968 14.5537 1.22929 0.500125 -0.0202003 1.10948 -3.87411 -5.01909 8.24525
11 1 Ar 3.80041 16.5605 1.4169 -0.0748027 0.267566 0.905205 28.8784 -2.92143 -2.9675
773 1 Ar 4.08221 15.7902 0.165093 0.0736745 0.765546 0.404931 -1.52085 -8.87205 -9.58509
374 1 Ar 4.91952 16.5633 1.47372 1.19523 0.502161 0.611723 -22.1437 11.0507 -15.7364
736 1 Ar 4.34048 15.4903 1.15151 0.147339 0.263312 -0.65556 5.59465 6.41909 6.47078
380 1 Ar 5.28413 15.925 0.505398 0.686756 -1.56767 -0.257636 -11.5595 12.9778 -2.06304
340 1 Ar 6.69682 15.9792 0.300745 0.254541 0.322729 -0.864756 -23.5999 -2.71739 27.0153
3979 1 Ar 8.34436 16.1257 0.431461 -0.887829 -1.01418 0.927293 10.5799 -23.4375 -18.7517
419 1 Ar 7.24796 16.1656 1.16929 -0.471358 -0.575692 0.122737 6.95118 16.0587 6.06294
741 1 Ar 7.55982 15.513 0.099953 0.329008 0.39632 0.0391036 0.588213 0.454117 -9.20321
3621 1 Ar 8.9229 0.162479 16.3853 0.181469 -1.65912 -0.196289 -4.92871 2.69315 8.1189
381 1 Ar 10.2541 15.7385 0.787394 -1.28264 -0.0840144 -0.910228 -12.4532 -8.03273 26.8452
742 1 Ar 9.47545 15.9904 0.0503456 -0.59952 0.254801 -0.486686 2.232 12.1078 0.516626
386 1 Ar 11.4813 16.0688 1.46032 0.645962 -0.567655 -0.422527 -5.38382 -20.0833 22.5305