ITEM: TIMESTEP
4700
ITEM: NUMBER OF ATOMS
4000
ITEM: BOX BOUNDS pp pp pp
0.0000000000000000e+00 1.6795961913825074e+01
0.0000000000000000e+00 1.6795961913825074e+01
0.0000000000000000e+00 1.6795961913825074e+01
ITEM: ATOMS id type element x y z vx vy vz fx fy fz
401 1 Ar 0.780656 1.47721 1.3025 -0.959664 0.197798 0.553502 3.32832 -7.47121 1.5585
798 1 Ar 0.720543 0.408292 0.285871 0.47786 -0.00372001 -0.285249 -5.63618 7.23717 0.169859
761 1 Ar 1.62803 0.701321 0.669092 0.0111889 -1.18894 1.2111 14.4651 1.70824 8.62822
412 1 Ar 2.35402 1.35028 16.7833 0.0134871 -0.158899 0.343804 -11.1913 -1.5655 7.00152
49 1 Ar 2.92518 0.728361 0.784537 -0.267061 -0.273203 0.689105 -1.14612 -7.66862 -10.064
3652 1 Ar 2.2106 0.931476 1.59095 -0.294839 0.256035 1.38135 -0.355123 3.53347 2.66792
7 1 Ar 2.42575 16.7003 1.22156 0.791501 0.363686 -1.07663 -1.50117 -6.96286 8.94731
3607 1 Ar 2.31714 16.7894 0.131203 0.233242 0.803652 -0.505825 -7.46602 2.77983 9.02282
93 1 Ar 3.97793 0.291965 1.12464 -1.0099 -1.33471 1.01223 0.448741 3.62452 -11.6759
410 1 Ar 4.22672 1.28782 1.1623 -0.267845 -0.192673 -0.369005 3.48409 13.675 -3.57978
457 1 Ar 5.29392 -0.040246 0.681298 0.417359 -0.674772 -0.0742307 32.8141 38.0251 19.3284
17 1 Ar 4.44601 16.4507 0.314212 1.2361 -0.0963778 -0.106406 -32.2463 10.2154 -7.24879
459 1 Ar 5.83616 16.2385 16.7812 0.511116 -0.0904987 1.4768 -2.09741 17.6994 -1.72018
414 1 Ar 5.04689 1.22699 0.309073 0.837914 -0.0432062 -0.250659 -11.8412 19.7143 19.5586
417 1 Ar 7.60912 16.6939 0.530104 0.147004 0.74551 -0.929683 -3.74855 6.19369 -11.2346
1180 1 Ar 5.96258 16.172 1.36096 -1.18425 1.56253 0.595663 -0.672264 48.5379 -17.0187
59 1 Ar 6.56327 0.120682 0.802594 -0.171613 -1.75849 -0.995328 -6.38642 6.36868 -8.30579
18 1 Ar 9.48637 0.0845358 0.704956 0.791973 0.887946 0.541795 -4.52645 -26.1908 13.422
379 1 Ar 8.57622 1.14819 0.412406 0.153306 1.07439 1.77388 2.35756 -5.06781 -5.33797
24 1 Ar 9.81309 0.990163 0.462443 -0.537063 1.77023 -0.620022 -0.170238 5.64226 16.811
64 1 Ar 7.51733 0.534199 1.52805 0.0103299 -0.885351 0.981691 11.5782 -31.285 0.858729
69 1 Ar 10.8015 1.16235 0.471176 -0.888753 -1.04008 0.968726 13.7379 8.12062 -0.00465443
779 1 Ar 9.67722 0.40818 15.8135 0.425183 0.199199 -1.40564 3.39828 1.39625 1.53464
31 1 Ar 12.403 1.23985 16.5327 0.137943 -0.339688 -1.08244 9.03779 -17.1372 -5.04815
3627 1 Ar 10.4144 0.21424 -0.0072397 1.36333 0.436596 -1.02966 12.7842 8.10541 3.74702
426 1 Ar 11.502 16.0285 1.13665 -0.113403 0.278978 0.330452 -14.6018 -1.34199 1.99542
33 1 Ar 14.0198 0.375294 0.789434 0.51646 -1.2686 0.314501 -6.62404 -5.54466 15.1392
34 1 Ar 13.4532 0.906592 1.71973 1.1174 -0.593436 -0.453216 -33.9049 -7.01104 -4.88895
473 1 Ar 13.106 0.952516 0.64122 0.743577 0.646099 -0.886476 -8.44294 0.080079 0.4658
79 1 Ar 14.4361 0.818979 1.79722 0.500596 0.267015 -0.0567645 25.8124 6.88104 -0.202721
437 1 Ar 15.624 1.33856 16.7394 0.782091 -0.543412 1.28322 15.4955 -29.2588 16.2439
434 1 Ar 16.7715 1.29637 0.443537 2.61112 1.06583 -0.0996772 -17.1486 -47.3763 26.1709
439 1 Ar 16.3273 1.47075 1.5536 -0.728297 0.558811 -0.931423 3.80115 9.83492 -1.94697
442 1 Ar 1.36498 2.26767 0.83346 -0.328968 0.539897 -0.409097 -2.52391 -6.76038 14.4583
449 1 Ar 2.05545 2.44358 1.96501 0.335598 -0.0049033 0.89993 -1.2237 -0.350476 -7.0402
446 1 Ar 2.44212 1.83163 0.983037 0.915519 -1.55368 1.89408 -14.0069 3.29416 -2.22785
489 1 Ar 3.1096 2.68906 0.906715 0.268412 0.162079 -0.257457 1.049 -0.517945 -0.629883
453 1 Ar 4.34368 2.40144 1.35554 0.429379 -0.217194 0.275198 6.17906 -10.3727 4.69406
91 1 Ar 3.37301 1.63875 0.481576 -0.0602177 0.36474 1.59195 7.85597 16.4765 9.38249
413 1 Ar 4.84092 2.28656 0.473594 -0.230894 0.378786 1.20007 0.453032 -12.2978 -7.29847
15 1 Ar 5.78806 1.98355 0.0336051 -0.0565194 -0.96548 -0.72604 -1.32157 -4.63175 -14.2615
529 1 Ar 6.02023 2.15416 1.03612 0.914061 0.07206 0.419485 6.35892 5.01983 10.8428
490 1 Ar 6.49444 2.79998 16.6433 -0.219112 0.157304 0.578485 -2.78996 3.0986 0.0501662
95 1 Ar 6.81991 1.23514 1.5221 -1.69774 -0.166796 1.03616 -17.3678 27.3643 -8.2541
458 1 Ar 7.83422 1.43847 1.11444 1.59359 -0.321953 2.3345 -0.664705 0.951538 -3.26205
94 1 Ar 9.09763 3.13229 1.19765 0.97793 0.62585 -0.547836 6.57922 2.24319 -7.82109
54 1 Ar 7.86832 2.44758 1.37131 0.00640638 -0.224379 1.32009 28.0056 8.78912 29.5051
25 1 Ar 11.4541 1.6768 1.19038 -0.996681 0.0256039 0.272802 -20.4076 -17.7957 13.4954
65 1 Ar 10.3537 1.80241 16.4416 1.24255 -0.42753 0.180745 24.5813 0.964474 21.0085
68 1 Ar 10.0512 2.18153 0.798044 -0.404593 0.451389 1.13862 -6.28228 -12.3481 -14.9472
107 1 Ar 10.8845 2.85788 16.6751 -0.271501 -0.259209 0.872787 8.38136 -7.04901 4.11867
61 1 Ar 9.29533 2.72609 0.148918 -1.50641 0.945181 -0.146656 1.2121 -3.46583 -1.43997
27 1 Ar 11.413 1.80796 16.5232 -0.386253 -1.71923 0.0367802 9.12888 -11.7449 13.8875
67 1 Ar 11.8518 3.38809 16.1603 0.30635 -0.711164 -0.771111 -6.3051 -12.9222 -4.3017
3663 1 Ar 11.3292 2.46212 15.7427 0.481891 -0.272405 1.19481 -2.12673 10.5621 -11.3744
73 1 Ar 13.1962 2.81527 0.60824 0.599073 0.224717 0.269994 -1.93633 3.91767 0.472087
513 1 Ar 14.2883 2.79966 0.793935 0.3722 -0.345372 -1.52585 -8.36431 -7.61759 22.8956
75 1 Ar 12.913 3.30504 1.67751 -0.519791 -0.398104 0.722337 -15.8085 4.95451 -2.34578
36 1 Ar 14.0901 1.48334 0.753826 -1.29807 0.697235 -0.274702 19.002 -6.79839 -4.37446
74 1 Ar 15.203 1.11877 0.968894 -0.860071 -0.0669937 0.880116 -10.0976 21.9677 18.8139
441 1 Ar 15.6685 2.91275 1.36936 0.121143 -0.0108827 -1.11504 -6.06868 -22.4478 -7.74768
402 1 Ar 0.194197 2.34011 1.19106 0.0195453 -0.463358 -0.389987 1.12819 -15.4896 -20.187
525 1 Ar 0.831023 3.28074 0.466041 -2.19184 -0.133218 0.67218 3.77625 0.359538 -2.96429
120 1 Ar 0.17666 4.14619 0.691866 -0.97984 -0.638029 -0.69445 0.271186 11.9465 -8.63714
521 1 Ar 1.36195 4.26902 1.12024 -0.441781 0.152763 0.173984 -1.96105 3.46177 1.26649
50 1 Ar 3.20964 3.95887 0.548464 0.279219 1.29529 -0.410203 10.242 -31.135 17.9416
82 1 Ar 2.07201 4.52349 0.313068 0.882317 -1.02318 -1.22872 11.7137 -23.7268 10.7156
486 1 Ar 1.4312 3.20748 1.34774 -0.855956 0.52844 0.729042 0.362407 7.03165 5.72945
530 1 Ar 4.40525 3.51603 1.52914 -0.257639 -0.324935 0.350815 27.6038 0.82093 9.74405
92 1 Ar 4.33046 4.17571 0.622468 -0.147349 0.706475 -1.41618 5.95917 -9.04857 46.7408
90 1 Ar 5.35097 4.27378 0.467328 -1.1632 -0.891815 0.110284 8.62348 31.0411 -85.3608
131 1 Ar 5.30386 2.96553 1.3341 -0.509923 1.86875 1.06435 -39.8729 -20.3288 -19.443
3689 1 Ar 5.14291 3.25623 0.298822 0.46423 1.30074 1.06551 2.58005 7.06712 -6.4256
3692 1 Ar 6.27545 3.63043 0.528253 0.588049 1.36991 -1.78485 -14.5081 -2.50643 13.6826
136 1 Ar 6.94593 4.14044 1.2289 -0.295707 0.944848 0.862314 14.8514 -9.23209 1.21062
500 1 Ar 7.01757 3.00584 1.54054 -0.644724 -1.32269 2.29854 -1.93675 1.29094 -31.3046
144 1 Ar 8.81957 4.47826 1.13293 0.054525 -1.2795 1.39984 -8.3711 -0.783489 8.12363
493 1 Ar 7.94143 4.43033 0.4138 -0.396947 0.190793 -1.03643 21.726 -33.3216 -10.9773
135 1 Ar 8.90581 3.78593 0.279071 -0.179627 -0.18863 0.173745 -5.52636 -0.183419 -4.0624
102 1 Ar 9.74703 4.04973 0.894241 0.139665 0.108923 0.958429 5.37599 -4.47297 6.42825
103 1 Ar 10.6805 3.6212 0.559067 0.64733 2.05532 -1.23068 4.89184 4.32777 13.353
112 1 Ar 11.3534 4.57223 0.655519 2.10375 -1.33291 0.29664 -16.9124 -1.52324 13.5066
110 1 Ar 12.8078 3.81028 16.3532 0.288977 0.170835 -0.030763 5.58201 3.39269 -34.584
155 1 Ar 14.1123 4.5984 0.386447 0.690172 -0.649929 -1.184 -29.7556 1.13765 -18.7603
76 1 Ar 11.7479 3.49171 0.55338 -0.453138 -0.364167 -0.835374 -23.5553 -9.33483 -1.9832
553 1 Ar 13.7649 3.62667 0.127506 -0.520315 -0.0893995 -0.797641 -16.5204 -8.54302 -16.534
115 1 Ar 14.7336 3.67555 16.6029 0.156034 0.960038 1.82683 11.2858 15.5032 3.79913
114 1 Ar 14.7917 3.68752 0.93974 -0.519962 -0.96347 -0.874469 8.7311 7.4695 3.41857
159 1 Ar 15.0505 4.66096 0.680559 0.493356 0.696589 1.07958 -2.99821 40.8937 42.2991
509 1 Ar 13.7513 3.73968 1.12641 -0.931363 -0.507786 1.40355 -3.51877 -5.06938 21.753
117 1 Ar 16.0812 3.82194 1.17839 -1.6601 -1.37403 0.533409 -11.7758 12.3386 -3.3372
84 1 Ar 16.6047 2.98213 0.538698 -0.105451 -1.18869 0.0635328 -12.7801 24.8676 1.46213
81 1 Ar 15.69 4.22034 0.126517 -1.44454 -0.0158669 0.0213605 35.0074 -28.2814 -30.3336
124 1 Ar 0.247678 5.36539 0.506531 0.614365 1.40155 0.464618 7.16656 -14.9759 5.33286
163 1 Ar 1.36702 5.2432 0.438766 0.75228 -0.223566 0.637289 -12.8255 7.06578 -5.64948
565 1 Ar 2.71731 4.44058 1.33247 -1.5944 -0.327516 0.118564 -7.02051 29.5393 10.4814
128 1 Ar 2.77109 6.21404 0.959921 -0.698537 -0.264588 0.431888 -13.098 -31.424 5.19185
526 1 Ar 2.15294 5.40391 16.576 1.74457 1.16005 0.335167 11.3168 11.1088 3.87846
165 1 Ar 3.68256 4.76431 1.17225 -1.16466 -0.664658 0.705125 5.22461 10.4973 4.77899
491 1 Ar 4.29357 5.48967 1.74763 1.43312 0.591219 0.239111 1.71634 -6.09189 -2.32718
129 1 Ar 2.86195 5.25312 0.580382 0.394513 0.272389 0.877858 4.97565 -4.87931 3.13924
3731 1 Ar 4.1143 4.95113 0.0330345 0.836754 0.00847015 0.437296 -4.84174 16.0394 -5.24151
133 1 Ar 5.33643 4.12407 1.37721 0.820812 -2.17557 1.03614 -3.42566 -11.5325 92.6486
96 1 Ar 6.64121 4.55304 0.0948872 0.55892 -0.260159 -0.259993 11.1033 -7.70659 -3.19483
3735 1 Ar 6.01545 5.9457 1.02629 0.636283 -0.142427 0.152895 -4.94669 -1.19247 20.4286
130 1 Ar 5.05569 5.29585 0.835261 0.0298131 0.941014 0.783899 -7.06477 -0.718104 5.84142
533 1 Ar 7.72177 4.49052 15.9146 -0.640386 0.300378 0.0497488 13.8866 -2.0858 6.8965
573 1 Ar 7.34304 5.1557 0.664071 -0.96329 -0.718742 0.140108 -24.3482 23.8139 17.2246
538 1 Ar 7.97753 6.27714 16.8211 1.56124 0.68581 0.772112 -7.39442 -7.52738 3.48796
534 1 Ar 8.82761 4.92546 16.5037 -0.369719 0.25837 -0.940798 -16.5583 -1.94554 13.8689
544 1 Ar 9.47423 5.13742 0.547533 -0.530006 -0.767886 0.0371436 8.94996 -3.63651 10.5395
541 1 Ar 9.78377 4.86494 1.74135 -0.453076 -0.888271 0.822224 0.196983 -9.21388 -8.40521
145 1 Ar 10.3441 4.59117 0.175299 0.301341 -0.0693721 0.230395 2.66112 4.62141 -4.61004
148 1 Ar 10.5759 5.45261 0.975477 0.0616077 -0.665955 1.70967 -7.45621 -5.49624 -6.82268
546 1 Ar 11.4955 5.72184 1.47189 0.92111 -0.148555 1.13397 -1.736 -4.31684 -7.67275
147 1 Ar 11.0846 5.53782 16.8016 -2.30811 -0.225498 1.12487 29.7139 -8.18903 8.31542
3711 1 Ar 10.1133 5.6698 16.6483 -0.460572 0.503165 1.96118 -11.4765 2.68071 -4.01588
151 1 Ar 12.2484 5.06953 0.514948 1.04308 0.614429 -0.926682 -2.08542 -16.5918 -31.5769
591 1 Ar 12.6792 3.82871 0.531007 0.621887 -0.627603 -1.5398 18.6532 5.02749 27.5647
191 1 Ar 13.2993 5.66259 0.678613 -0.445834 -0.260244 -0.720105 -7.11671 -0.00628778 -12.6925
599 1 Ar 15.2487 5.74628 0.08427 -0.598613 0.706791 -1.23632 -15.1827 6.94137 2.9822
596 1 Ar 13.6939 5.85041 1.64853 0.5889 0.724774 1.25692 -9.35989 11.7103 -12.1613
121 1 Ar 16.1342 5.23556 0.0636005 0.363403 -0.248652 -0.379018 -2.0667 -0.851672 -21.2397
518 1 Ar 15.4176 5.75172 1.0915 -0.368788 1.07082 0.99881 -8.91609 -12.4436 24.1719
598 1 Ar 14.9946 6.74722 0.486846 -0.42447 -1.45074 1.42354 1.92926 -1.06447 -5.51623
605 1 Ar 0.811781 6.22444 0.412043 0.425662 -0.52719 1.24785 -1.10805 9.58647 -1.58496
158 1 Ar 16.722 6.98337 1.44422 0.816124 0.326527 1.34178 -0.748751 6.8497 -3.21223
205 1 Ar 1.62725 7.63996 16.7145 -0.662314 0.268528 -0.415175 -10.1957 -8.88673 23.4667
563 1 Ar 0.98686 5.48784 1.35318 -0.192821 0.702115 -0.800218 -31.0411 -12.6465 22.5882
522 1 Ar 1.62805 6.18036 1.04391 1.21596 -1.05066 0.759934 28.5325 20.0684 -8.39401
132 1 Ar 3.49623 6.37276 0.102793 1.02447 1.35881 0.250526 -7.86232 7.92331 10.1701
609 1 Ar 2.11842 8.02881 0.917684 -0.322432 -1.20372 1.26497 -3.47658 3.6167 6.54009
173 1 Ar 3.5932 6.7886 1.16685 0.638446 -0.344937 -0.817214 20.057 8.70319 3.96906
174 1 Ar 4.52376 7.01564 0.437432 0.78414 -0.222284 0.35881 -4.10514 -13.6531 23.3305
170 1 Ar 3.66781 7.50272 0.0998203 -0.20999 -0.644851 1.01926 -32.8752 -10.1801 -22.9736
610 1 Ar 4.63259 7.32406 1.61516 -0.564167 -0.873261 1.77337 -27.9373 4.21867 -1.60343
178 1 Ar 5.59474 7.28123 1.37984 -1.58495 -1.03127 -0.758411 28.0966 -4.60511 5.30052
3375 1 Ar 5.85447 6.71936 16.3178 0.321058 -0.443302 0.413429 9.30377 0.222026 9.86003
618 1 Ar 7.45162 6.18338 0.986186 0.256868 0.270097 0.618859 4.88779 6.46279 9.24096
141 1 Ar 7.57036 7.2487 0.471163 -0.709026 -0.265303 0.535125 17.4953 5.27998 -3.84921
180 1 Ar 8.44313 5.39324 0.705018 2.85797 -0.113203 -0.829658 -6.29866 9.27664 0.233538
183 1 Ar 9.52498 6.95766 16.5553 0.409418 -0.710906 0.644777 -8.06984 -5.90002 3.06972
219 1 Ar 8.72362 6.66506 0.70424 -1.64842 0.262837 -0.344741 3.13683 -5.98351 5.15098
585 1 Ar 9.85523 6.28182 0.746236 -0.725691 0.721004 -1.55602 5.20399 1.69716 -8.75181
586 1 Ar 10.4115 8.05086 1.2672 -0.12575 -0.972928 0.22256 -3.96172 -5.21551 -2.63639
3785 1 Ar 9.68674 7.40585 0.765892 0.270781 0.599488 2.1101 1.84665 3.03458 -17.9699
181 1 Ar 10.9117 6.59267 0.310128 -0.152927 -0.726995 -0.804842 -4.4747 -14.6786 13.5892
187 1 Ar 12.0057 6.07666 0.39491 0.83898 -0.0415137 -0.24176 -3.44725 7.039 2.26846
188 1 Ar 10.6954 8.4196 16.5823 0.713223 0.611851 -0.68204 -1.82095 3.86926 0.152997
229 1 Ar 12.543 7.6689 1.52048 -1.66421 0.603866 -0.941861 7.50982 0.145101 12.1403
190 1 Ar 12.6051 6.93151 0.0579824 1.00056 -0.988469 0.243198 1.90173 3.73031 -2.2302
3790 1 Ar 14.0083 7.59152 0.845854 0.0821194 0.0535648 -0.631909 17.0257 -8.79964 3.92265
3750 1 Ar 12.2357 7.94761 16.3296 0.091556 0.856576 -0.489627 -1.1568 8.25843 -9.10981
3760 1 Ar 14.2015 8.60887 16.694 0.0202482 -0.648005 -0.581563 -7.66988 -44.7208 22.8748
199 1 Ar 14.8741 8.33774 0.669389 1.08606 -0.0294501 -0.351027 -2.37437 -10.1537 1.92835
560 1 Ar 14.3308 6.65837 1.29859 0.131057 -0.0778799 0.621707 -3.82891 2.10786 5.01386
594 1 Ar 14.625 7.98651 1.82811 -0.970293 0.00961108 -0.40638 -6.91282 -2.48438 -31.5077
3799 1 Ar 0.413829 7.84406 16.3101 -0.721404 1.00837 -2.00949 -20.2175 -29.1224 -20.4263
597 1 Ar 15.4968 7.38644 1.27417 -1.09573 -1.98507 -0.733203 -1.41992 -1.66267 -12.4844
608 1 Ar 0.389471 8.86412 1.32448 -0.123654 0.499765 0.557006 13.405 7.79938 2.91674
207 1 Ar 1.31305 8.74828 0.579106 -1.19557 0.138224 -0.0269355 -0.432071 -4.67236 -1.05485
201 1 Ar 0.323157 8.35038 0.380172 0.104836 1.22772 0.547194 -5.79598 8.42749 10.3014
167 1 Ar 2.54917 8.02811 16.7228 -0.881274 -0.242937 0.323476 19.2732 -5.25969 3.24854
210 1 Ar 3.0795 7.72461 1.56679 2.54343 -0.540383 0.184716 -16.242 2.18045 -25.7317
3772 1 Ar 4.2755 7.99592 0.698114 -1.21487 -1.25154 -1.0885 18.7798 24.3464 21.694
211 1 Ar 4.95054 8.42391 1.74516 0.854806 -1.27394 -0.493504 13.173 -12.9635 0.469954
3774 1 Ar 6.49973 7.05608 0.687715 -1.18073 -0.924583 1.97009 0.287898 -4.09477 -1.27751
651 1 Ar 6.45798 8.01684 16.5731 -0.709368 -0.338548 -0.00858626 -22.5286 -7.93034 14.6169
620 1 Ar 5.50365 7.38879 0.355339 0.0485784 0.10804 1.13907 12.6517 2.81146 -7.21139
215 1 Ar 8.31906 7.99331 16.0045 1.40623 -0.342172 -0.570005 4.43321 9.41886 15.9634
297 1 Ar 6.54395 8.64157 0.846459 -1.33865 -0.831486 -1.39626 10.0047 -13.4657 16.5534
224 1 Ar 7.72698 8.21208 0.952927 0.884256 0.794246 0.113112 -7.57514 -10.9332 22.0613
3779 1 Ar 7.42026 8.41082 16.8116 -0.274047 -0.4481 0.90871 4.93978 6.38028 -12.9268
3821 1 Ar 8.43372 8.78734 0.388278 -0.952875 0.715374 -0.634739 0.0823098 -31.9942 -10.9872
225 1 Ar 9.2318 8.9953 16.5469 -0.115805 0.295456 -1.44731 8.8414 -13.9182 8.19074
582 1 Ar 10.4114 9.21165 0.680709 0.181955 0.179511 -0.272883 4.55782 -8.33578 -12.2631
222 1 Ar 9.15395 9.39726 1.05437 0.199868 1.81318 -1.19561 3.53418 10.9648 -8.76884
3791 1 Ar 12.2591 8.04499 0.591472 1.5179 -0.753322 0.22872 4.16274 10.6949 -1.45351
3836 1 Ar 11.2623 8.45248 0.92123 1.55156 -1.40913 0.130892 5.24609 11.2249 3.36647
3796 1 Ar 12.323 8.82921 1.44737 -0.576043 1.45546 0.280603 5.21587 -9.13863 -25.3184
195 1 Ar 13.2795 8.30874 0.856006 -0.697083 -0.294471 0.307183 -28.1247 0.374375 -3.72255
636 1 Ar 13.1465 9.52292 1.15181 -0.386288 -1.33534 -0.655295 15.9182 4.55986 13.2278
197 1 Ar 14.0315 8.92731 1.08618 -0.562409 1.13217 0.129598 27.8449 1.87816 -0.0962178
237 1 Ar 13.6309 9.43904 0.218692 0.188722 -0.483879 1.25259 -9.58225 6.20445 -4.67261
164 1 Ar 16.4052 8.15362 1.1947 0.468461 0.53408 -0.021841 -5.5281 -7.77922 9.10387
3803 1 Ar 14.611 9.86407 0.448267 0.390528 -0.11088 1.73423 -4.18055 -3.83857 -9.82763
240 1 Ar 15.569 8.9348 1.18419 0.472339 -0.604074 0.354235 5.93137 1.05226 9.76262
3808 1 Ar 16.3317 9.38945 0.150604 -0.334059 -0.277511 0.256224 3.93132 -24.0603 12.2705
208 1 Ar 0.591285 9.60742 0.124054 0.0299035 -0.917566 -1.39688 7.91845 -16.0055 -2.46538
641 1 Ar 1.01796 9.92584 2.08029 1.40872 -0.62615 0.563158 -8.04361 8.05438 -21.2462
242 1 Ar 2.74756 9.62807 16.2258 0.110187 -0.10302 0.324186 -13.606 -8.64766 -11.044
612 1 Ar 1.74618 9.64531 0.913554 -0.440981 1.24177 0.907327 6.68744 -2.58857 8.63647
212 1 Ar 1.74159 10.6382 0.589157 -0.710391 -1.17125 -0.567322 -10.385 7.32046 -11.0195
213 1 Ar 4.29956 8.99305 1.15379 -1.37477 -0.320781 -0.0591019 -6.80507 -29.9152 -15.8212
649 1 Ar 3.636 10.0977 0.981187 -0.243244 -0.272206 -0.223129 21.4744 -14.6306 -0.949279
1010 1 Ar 3.34411 8.75293 0.882918 1.03241 -0.637509 -1.04275 -18.1288 -2.57679 2.76684
3812 1 Ar 2.68885 10.1711 0.502048 0.724143 -0.49157 -0.525117 -2.02611 -7.20869 -17.6729
653 1 Ar 5.33849 8.53492 0.647504 -0.378813 -0.598772 -0.691305 5.78251 -12.1631 4.59395
3856 1 Ar 4.83839 10.6868 0.862192 0.0793009 -0.414197 1.76096 -17.7395 3.64743 9.42904
3815 1 Ar 6.19738 9.3196 0.192592 -1.03923 0.994247 -1.01883 -9.44026 8.24333 -26.4102
655 1 Ar 5.42732 10.5826 0.0707229 -1.15152 -0.0803498 0.0949177 23.3759 1.25723 -19.1445
3820 1 Ar 6.72265 10.1837 0.525981 0.0118819 0.609341 0.0343943 -4.26067 11.1596 8.84473
218 1 Ar 6.88848 9.71346 1.5137 -1.66075 -0.451666 0.328693 25.1289 -1.46088 -21.3926
253 1 Ar 5.84576 9.62214 1.14878 -1.31074 -0.603857 -1.27371 -7.35772 17.8138 -6.55925
255 1 Ar 7.2047 8.72593 1.97204 0.836434 0.0172112 -0.871265 -7.71075 0.763692 -6.91742
223 1 Ar 7.58592 9.32182 0.728121 0.826469 -0.585616 0.138764 -7.13333 2.66199 4.35665
665 1 Ar 7.86783 10.5893 1.03124 -0.14765 0.0684415 1.4284 -13.8277 -8.41187 0.887284
3859 1 Ar 8.25436 9.08479 16.0779 0.704609 -0.281695 -2.13497 -6.9408 1.61204 2.6975
3784 1 Ar 8.48408 9.75668 0.19648 0.321266 -0.420198 0.376007 -0.566579 29.5394 0.0231346
669 1 Ar 10.7671 9.10135 1.74128 -1.58299 0.801049 -1.01601 -1.72535 -5.61437 -1.36109
626 1 Ar 10.0427 9.84431 1.40501 -0.856942 0.313725 -0.198525 -28.9667 -4.79391 10.444
267 1 Ar 10.8226 10.2833 0.45585 0.299703 2.25874 -0.896172 11.5908 -26.2177 -3.87171
228 1 Ar 9.50929 10.361 0.468414 -1.8502 -1.30117 -0.253423 -4.70927 -14.038 23.9323
672 1 Ar 10.8402 10.4101 1.49107 -1.42384 0.104152 -0.198595 -2.38385 13.4818 30.0151
3907 1 Ar 11.9801 10.3556 16.7828 0.910255 -0.419724 -0.0838754 -2.96402 -2.74421 2.90092
230 1 Ar 12.4293 9.47107 0.488957 0.674609 -0.496305 -0.372313 -16.8719 -2.69815 -25.9902
3871 1 Ar 11.6004 11.0882 2.17104 -0.209626 -0.642888 -0.236574 15.5403 -8.24628 0.863764
3795 1 Ar 14.8343 9.94912 1.47318 0.205147 -1.36227 0.97767 5.68933 -3.32686 -1.91935
194 1 Ar 13.9962 10.7541 0.928958 -1.4129 0.321448 -0.121862 -1.89249 -6.22328 -1.85747
315 1 Ar 14.96 10.8859 0.342441 0.328667 0.643879 -0.237491 -7.11016 7.8021 6.29505
234 1 Ar 15.6732 9.91658 0.785256 2.14199 -0.412941 1.01348 -11.4979 17.7262 -5.00866
717 1 Ar 16.6327 9.70123 1.10175 0.849664 1.01327 -0.821187 3.12311 11.646 10.1985
680 1 Ar 15.8178 9.89577 1.93707 0.707127 2.56956 0.25549 4.50891 -17.2034 -0.769188
279 1 Ar 0.806117 10.1627 0.960115 -0.656362 0.295342 -1.02499 1.17761 13.3982 13.2453
248 1 Ar 0.105397 11.6861 1.29056 0.656846 0.0681518 -0.547844 -10.7463 0.966119 -12.3784
241 1 Ar 16.5712 11.657 16.5915 -0.139821 0.142098 -0.658134 6.1801 -4.98665 4.86792
245 1 Ar 0.797951 11.285 0.330936 0.930466 0.397342 1.47776 -22.0147 8.32131 21.4743
287 1 Ar 2.15424 11.4486 1.16972 -1.09322 -0.9218 -1.10745 -4.22607 21.2331 -18.3449
331 1 Ar 2.60967 11.2169 0.225647 -0.223764 0.118467 -0.199333 23.1902 -0.446475 -1.05597
725 1 Ar 2.26606 12.4821 0.468756 0.750174 -1.05335 -0.202673 -10.0142 -0.525216 -11.9041
1089 1 Ar 4.96324 11.4788 1.49855 -0.627631 -0.0429062 0.27512 11.4608 4.74865 16.5446
1090 1 Ar 3.13908 11.8782 0.901049 -1.50703 -0.827569 -0.602271 -7.04877 -27.9184 31.5358
249 1 Ar 3.37523 12.6281 0.343821 -0.704847 0.726055 -0.438726 2.11195 15.4247 -1.51327
291 1 Ar 3.69098 11.0545 0.525821 0.0647214 -0.588515 0.0715415 9.83354 -19.5631 11.3071
250 1 Ar 5.1127 12.6539 1.40334 -0.152812 1.76305 -0.385223 5.52502 -9.96921 -8.26159
257 1 Ar 6.85344 11.537 0.880642 1.64103 0.0257036 -1.13745 -11.1557 -6.10321 -10.2323
693 1 Ar 6.95755 11.9787 16.653 -0.38707 0.927922 0.148299 -12.1997 -10.9294 -9.83957
259 1 Ar 7.67679 11.5237 1.56127 -2.50744 0.462784 0.937594 16.9131 1.80383 3.54361
258 1 Ar 7.41379 10.924 0.0556223 0.350892 -0.0664121 -0.366723 2.20301 2.17643 0.0370784
668 1 Ar 8.58598 11.1622 0.526787 1.18185 -0.208654 0.106959 8.11937 -14.3429 -7.81414
666 1 Ar 10.3284 11.1283 0.281223 1.22366 -2.0755 0.819311 5.50886 29.8865 13.4033
707 1 Ar 9.90316 12.1429 0.209984 0.883804 0.0489978 0.328181 -2.00321 3.62315 -5.96163
272 1 Ar 11.4784 12.4814 1.67937 -0.930821 1.75064 -0.554838 -0.689015 -7.19221 -3.96881
3866 1 Ar 11.0735 12.485 0.332203 0.915042 0.66337 -0.297461 -0.23332 -1.42255 -2.58615
3872 1 Ar 11.2256 11.3266 1.07557 1.27144 1.40298 -0.20757 0.755468 10.1957 -3.71642
270 1 Ar 12.0339 12.0439 0.724236 -1.26516 0.490827 2.71439 2.09635 1.51678 10.8997
3949 1 Ar 13.0601 11.6429 0.46457 1.74514 -0.18738 -0.392894 3.97737 -5.77926 -29.548
273 1 Ar 12.6224 11.1714 1.26035 0.426452 1.50236 1.46379 -18.219 -3.11118 -8.53894
3435 1 Ar 13.9075 10.5184 16.5244 0.620486 0.401866 1.25006 -16.3047 -23.68 13.644
353 1 Ar 13.245 10.5706 1.77073 -0.934641 1.43905 -0.849532 15.8981 -14.1986 10.5713
3916 1 Ar 14.1714 11.7123 0.482367 -0.794919 0.470886 0.512595 1.45606 -5.11662 -12.6338
3884 1 Ar 14.2852 12.5228 1.09818 -0.759838 0.267476 0.346565 -14.5961 5.21371 -2.83948
319 1 Ar 15.5923 11.8987 0.218618 -0.17038 0.0888634 -0.393571 11.9526 -23.7672 13.931
718 1 Ar 15.8296 11.1063 0.984978 -0.447686 0.559754 -1.05711 -10.8973 3.02785 9.69973
278 1 Ar 14.9099 12.541 16.6639 1.03399 -0.49172 0.402507 -6.72449 9.88789 10.3411
282 1 Ar 1.01612 12.5438 0.622036 -0.508632 -0.569903 0.251887 -7.88455 -4.50029 -29.4272
285 1 Ar 2.41774 12.5181 1.46498 0.439682 0.527038 -0.392947 8.88293 -21.8308 9.10304
1171 1 Ar 1.50295 13.2734 1.20078 0.402714 0.0442966 1.80858 -2.93082 14.6879 -21.0109
732 1 Ar 2.77223 13.3992 0.982858 -0.107948 -0.477078 -1.03251 -1.95243 -2.14178 -16.7696
690 1 Ar 3.87916 12.8617 1.22867 -1.28033 -0.986338 0.418041 -32.2276 -34.9736 4.05799
332 1 Ar 4.35411 13.6869 1.39573 -1.00637 -0.692455 -0.161408 14.5111 39.6621 -2.41588
729 1 Ar 4.61068 12.9711 0.503119 -0.332079 -0.0572428 -0.529461 9.42728 11.6826 -5.66008
1094 1 Ar 5.55291 13.5142 1.89666 1.12857 0.111509 0.874374 -13.6203 15.4118 -1.62941
333 1 Ar 5.43658 12.9556 16.1214 1.03954 0.963556 0.177972 -7.012 -1.22821 41.2297
694 1 Ar 7.56927 13.7068 16.8031 -0.803237 -1.37621 0.295428 -2.55506 8.3515 -13.5869
295 1 Ar 7.20656 12.8245 0.372134 -0.699124 -1.09489 -0.916985 3.50202 -8.81887 22.0135
700 1 Ar 6.16146 13.0851 1.13082 -0.0967765 -0.254711 -0.432592 0.715532 -12.8338 2.44468
302 1 Ar 8.23341 13.3083 0.762091 1.94012 1.18398 -0.116094 1.54103 -4.2866 2.07168
3864 1 Ar 7.79405 11.8582 0.546138 0.719292 0.850283 0.930934 5.74958 11.5334 -2.94054
3903 1 Ar 9.08414 13.6196 1.40044 -0.867347 1.30745 -1.52733 -10.619 -0.656338 -22.4065
266 1 Ar 9.16153 13.0731 0.116875 -0.197793 -0.0342797 0.0504609 1.19437 -6.31212 -1.77808
308 1 Ar 10.1556 13.4061 1.02802 -0.426347 0.108542 0.446968 5.82054 -10.5729 -0.415539
305 1 Ar 9.96393 14.4257 1.36578 0.442631 0.767455 -0.259938 -7.77306 0.0854316 2.87664
3947 1 Ar 12.1456 12.3189 16.4828 0.929868 -0.147288 -0.257443 3.59394 -0.48002 -4.02501
3951 1 Ar 11.1664 14.1509 0.453674 -0.174812 0.0326181 1.5512 10.4082 1.17918 -1.44057
385 1 Ar 11.5739 13.2858 0.95949 0.737524 -0.349217 0.31352 -4.52256 1.0557 -10.598
310 1 Ar 12.5983 12.9947 0.507726 -1.18529 -1.63952 -0.89532 9.12036 -4.45136 -7.29202
360 1 Ar 13.1406 12.3056 1.2252 0.840458 -0.501746 -0.16621 4.57953 18.1234 4.79435
3920 1 Ar 14.0843 13.9437 1.6851 -0.523205 0.620818 0.375471 12.5584 2.21049 19.9416
354 1 Ar 13.6581 12.8307 16.7746 0.774867 -1.25728 -0.225209 10.7311 -3.67204 12.8429
3959 1 Ar 14.532 13.3395 0.487412 0.883732 0.247675 0.15227 -23.1837 22.4739 -4.16565
357 1 Ar 15.5211 13.7323 1.00941 -0.175126 0.0837233 0.226209 11.5963 8.71161 5.9925
322 1 Ar 16.1659 12.7259 16.6709 -1.76323 0.48073 0.85847 -12.4455 12.7841 15.9381
321 1 Ar 16.3914 12.6531 0.939907 -0.228857 0.442767 0.400833 3.97179 8.03068 -37.5583
318 1 Ar 15.2698 12.7537 0.800143 -1.26225 0.874448 -0.0104254 35.5411 -4.87798 15.3303
328 1 Ar 0.427213 13.3137 1.16666 1.48602 0.461169 0.277645 15.1422 4.62417 -5.34908
765 1 Ar 0.670948 15.5178 0.792125 0.0836379 0.115739 1.16801 8.02441 -0.187612 -5.31004
368 1 Ar 1.19215 14.465 0.798314 -0.188104 0.158766 -1.62207 18.0733 -1.45337 -0.318073
768 1 Ar 1.7696 15.389 1.64554 0.546139 0.393407 0.499067 -3.11693 -9.05191 -7.61171
367 1 Ar 2.24162 14.3574 0.94534 -0.142336 0.358701 -0.669155 -15.2097 2.77355 16.3699
726 1 Ar 1.5599 13.7395 16.7227 -0.182908 0.455818 -0.123578 4.18897 -5.15555 10.2924
371 1 Ar 2.96554 14.2572 0.250193 -0.144452 0.497265 1.6561 4.46443 17.873 -13.1786
336 1 Ar 4.36259 14.5562 0.616568 1.5418 -1.31758 0.191949 -0.109534 0.154363 -1.32092
730 1 Ar 3.22737 13.6214 1.87089 0.539677 0.574542 0.0939859 11.1084 1.71972 10.4455
335 1 Ar 5.27928 13.8742 0.527748 1.10948 -0.479822 1.02185 1.1549 -3.27689 10.9592
734 1 Ar 5.85518 15.0309 0.765001 0.295202 -1.56677 1.13234 23.0786 -29.2183 9.93753
735 1 Ar 5.09197 14.4345 1.4749 1.25126 0.0212192 -0.420978 5.55923 1.96378 -2.51344
1177 1 Ar 6.18923 14.4737 1.92817 -0.642439 0.0568708 -0.0751049 -25.3587 -7.6486 0.0557381
733 1 Ar 6.55332 14.0644 1.01455 -0.2034 -0.685476 1.68056 -16.185 15.9735 8.25729
780 1 Ar 6.54128 15.4573 1.70452 -1.42426 -0.299011 0.0217909 2.22226 -10.2431 13.0724
1137 1 Ar 7.89963 15.3688 1.35798 1.25119 0.590998 -1.00499 6.70847 3.7436 -1.94641
343 1 Ar 8.81669 15.9807 0.51215 0.0315964 -0.190675 -0.632851 6.99372 -0.527915 11.1185
747 1 Ar 8.80281 14.6049 0.985926 -1.56715 0.0612135 0.191059 -10.2421 -3.44334 -24.7248
337 1 Ar 7.70216 14.4703 0.7199 -0.0690856 -0.611662 0.500274 2.28421 -0.56887 15.5607
346 1 Ar 10.6834 15.0021 0.841131 -0.519072 -0.248422 -1.16649 -23.9723 -27.8158 29.987
342 1 Ar 9.70315 15.1682 0.491848 -0.745913 1.29632 0.246123 -13.9296 4.59469 0.935904
345 1 Ar 11.4822 14.7958 1.53946 0.489496 -0.539887 1.30401 3.98371 -2.29497 1.29567
348 1 Ar 12.3435 15.0793 0.839132 -0.383486 -0.819413 -0.541307 0.648343 -24.4189 16.99
786 1 Ar 11.3905 15.2823 0.255638 0.196403 1.38324 -1.39258 45.8608 6.03914 -20.6466
3910 1 Ar 10.4131 14.7482 16.618 -0.130538 0.13382 -0.415312 -2.01891 -41.4527 1.89239
3912 1 Ar 13.1469 13.8599 16.5757 -0.00981708 0.788105 1.15666 -6.36339 6.26067 19.5986
393 1 Ar 13.7018 14.451 0.851898 -0.0947615 0.37446 -1.01557 -26.1058 4.55827 -9.35497
350 1 Ar 12.3974 14.0519 0.886473 -0.449625 -1.03998 -1.56653 2.92331 -14.446 1.2735
391 1 Ar 13.4881 13.4055 1.04473 0.825127 0.492392 -0.383686 -8.43722 -12.9831 -8.6137
4000 1 Ar 14.5501 15.2008 1.70608 -0.733434 -0.724137 -1.11286 -2.25891 -3.92369 -5.58314
400 1 Ar 14.1927 14.9778 15.9846 0.213669 -0.586475 -0.321674 -15.2411 2.63157 6.18103
3591 1 Ar 14.1586 14.1745 16.7385 -0.982006 1.06935 1.45109 1.36456 7.287 -1.85186
758 1 Ar 0.195005 14.4545 0.823713 1.47308 -0.639922 0.423519 -12.9641 8.27192 -0.519027
395 1 Ar 16.1119 14.76 1.30398 -0.763613 -2.19167 1.2759 -5.18702 -8.47742 9.88913
358 1 Ar 15.0734 14.5519 16.2451 0.379922 1.26408 0.814165 -1.26332 -15.9641 17.0606
3 1 Ar 1.36377 16.481 1.14592 1.08671 -0.453935 0.508543 -3.02337 -5.19349 -14.4684
4 1 Ar 16.7165 16.5791 0.616114 -0.557045 -0.59559 1.86814 -3.62739 -12.1525 -2.03896
399 1 Ar 0.363479 0.482453 1.31662 1.3301 0.171089 -0.883301 -11.3057 13.4123 -17.2861
364 1 Ar 1.22097 16.2371 0.0243311 -1.88439 -0.489448 -0.00173152 -2.12532 0.48849 3.41207
405 1 Ar 2.80567 15.5224 1.64928 -0.140073 0.179142 2.02824 14.3313 10.0907 -19.1629
361 1 Ar 2.05365 15.8182 0.567528 -1.31664 -0.341391 0.666112 3.67467 -5.88838 7.14585
762 1 Ar 3.17226 15.4074 0.519208 0.147293 -1.48986 0.17861 -4.94778 -27.9203 -2.89348
409 1 Ar 3.26545 16.3969 0.580356 0.652506 0.435744 -0.673892 0.723642 17.3447 29.6473
770 1 Ar 3.23972 14.5471 1.32842 -1.14174 -1.44358 -0.332199 3.77579 3.65727 -7.0563
11 1 Ar 3.4957 16.376 1.66974 -0.411889 -0.777601 -0.545888 -6.17993 -9.44923 5.7045
773 1 Ar 4.17332 15.5394 0.00331871 -0.400468 -0.301734 0.16557 -20.5362 -24.9121 7.95136
374 1 Ar 4.71005 16.3843 1.46619 -0.731341 0.799131 -0.445702 -8.58665 -11.0823 6.69339
736 1 Ar 4.07009 15.5053 1.17775 -1.21547 0.469639 1.96326 1.1226 0.0977932 -5.79339
380 1 Ar 5.15661 15.7225 0.713817 -2.43899 1.37477 -0.777169 -31.8669 15.8885 -41.5924
340 1 Ar 6.7327 15.7065 0.64786 0.200672 -0.0652805 -0.505949 -3.10305 -8.35616 -1.47776
3979 1 Ar 8.76723 0.0717578 16.681 -1.11118 -0.758562 -0.170259 1.5541 2.19567 -5.19387
419 1 Ar 7.11652 16.2799 1.42411 0.268566 -1.47957 -1.40765 3.72513 4.31017 10.6765
741 1 Ar 7.84693 15.6908 0.173586 -0.626954 1.09544 -0.449602 -10.6524 0.695111 1.38982
3621 1 Ar 9.03567 16.3396 15.6027 0.253023 -0.571213 -0.616228 -2.51747 2.88988 0.916315
381 1 Ar 10.4482 15.9665 0.724822 -1.29859 0.405969 -0.355681 -2.42594 26.8186 -5.06574
742 1 Ar 9.72562 16.275 16.6161 -1.16674 0.93881 -0.001236 -12.2996 -12.3721 -4.19518
386 1 Ar 12.4534 15.9267 1.58179 -0.444261 0.00676412 -0.0196815 8.62689 -5.26798 5.25681
3987 1 Ar 11.3321 16.3359 0.0469064 0.991352 0.533236 -2.26708 11.7329 16.1101 4.9133