ITEM: TIMESTEP
4900
ITEM: NUMBER OF ATOMS
4000
ITEM: BOX BOUNDS pp pp pp
0.0000000000000000e+00 1.6795961913825074e+01
0.0000000000000000e+00 1.6795961913825074e+01
0.0000000000000000e+00 1.6795961913825074e+01
ITEM: ATOMS id type element x y z vx vy vz fx fy fz
401 1 Ar 0.777908 1.16936 1.38942 0.544116 -2.33469 0.307804 1.52753 -3.26483 5.56307
798 1 Ar 0.635904 0.391533 0.540872 0.270768 -0.645541 -1.1086 5.0851 -3.10066 2.59657
761 1 Ar 1.78378 0.633464 1.00418 -0.00881165 -0.410426 0.752626 -14.7958 -24.2583 -34.7816
412 1 Ar 1.93541 1.24527 0.0355973 0.0690465 -1.09205 -0.0154009 10.3312 -0.264447 6.25882
49 1 Ar 2.79794 0.660789 0.638892 0.594002 -0.53161 -0.309117 -3.9215 6.1381 -9.33462
3652 1 Ar 2.05954 0.566425 1.95804 -0.23004 0.0526677 0.882437 0.00454301 9.25485 10.7695
7 1 Ar 2.61244 16.5697 1.57872 -0.281513 -0.198951 1.09593 4.90805 -6.00046 -4.64778
3607 1 Ar 2.08444 16.6376 0.335242 -0.164617 0.100967 1.33469 5.80936 -10.7037 5.02901
93 1 Ar 3.53642 0.158974 1.17063 -1.65071 -1.74105 0.0790093 13.3614 -3.86999 4.49676
410 1 Ar 4.10497 1.27562 0.94147 0.038185 1.56921 -0.193034 -6.12183 -0.427838 -2.10088
457 1 Ar 4.60133 0.334456 0.750676 0.0481513 0.390077 0.276572 6.47802 -2.6819 3.56683
17 1 Ar 3.98641 16.0358 0.619947 0.184891 -1.00656 1.34373 -15.3795 30.1992 2.76882
459 1 Ar 4.77022 16.3742 -0.0124344 -0.390834 -0.603273 -0.00940899 9.18724 56.3071 42.4653
414 1 Ar 5.38681 1.25744 0.745991 1.48504 0.197923 -0.628937 0.111531 -6.2343 -1.0608
417 1 Ar 8.0332 0.369788 0.374591 0.324633 -0.620144 -0.241568 -1.73188 -9.37905 -6.87946
1180 1 Ar 5.55492 16.3729 1.11863 0.433621 1.1238 0.973035 0.232264 2.93711 0.936287
59 1 Ar 6.85118 0.0671548 0.461776 0.0289458 1.48148 -0.90523 7.23998 3.77903 -3.05128
18 1 Ar 9.21581 16.5483 0.920258 0.301358 -1.08184 -1.24897 21.9709 -2.74782 5.77343
379 1 Ar 8.6829 1.21972 0.366515 -1.31636 -2.1086 0.401341 -13.107 14.8698 8.31894
24 1 Ar 9.50383 0.643866 0.433265 -0.953705 -0.696887 1.01454 23.0498 -8.00225 -2.87996
64 1 Ar 7.43536 0.317067 1.36772 0.886019 1.3252 0.51907 -11.2699 -0.517429 -3.50769
69 1 Ar 10.4331 1.30543 0.523797 -0.161224 -0.311192 -1.35533 -8.35062 48.45 -47.3249
779 1 Ar 9.93018 0.595976 16.0859 -0.384108 -0.818473 -0.277458 -1.07885 0.954495 2.48102
31 1 Ar 12.544 1.38565 16.3625 0.451512 -0.782483 0.400453 4.8293 2.8672 46.9194
3627 1 Ar 10.7399 0.337346 0.134504 1.50553 -0.0256464 0.627995 -14.1223 -3.9382 0.232777
426 1 Ar 11.5698 16.1498 0.977057 0.484494 0.989994 -0.146947 -13.4321 3.9535 7.30354
33 1 Ar 14.6731 0.185167 0.641461 0.0974626 0.565095 -0.563441 -22.4582 23.7936 1.29906
34 1 Ar 13.5884 0.458247 1.23579 1.43988 0.592982 -0.396916 4.04833 -1.3112 4.55483
473 1 Ar 13.088 0.925781 0.441199 0.605892 0.866834 -0.499346 -2.4042 7.99981 -3.0638
79 1 Ar 14.7647 0.935921 1.82211 -0.0998281 -0.657163 -0.496664 -1.85172 11.8573 -6.6076
437 1 Ar 15.9807 1.30519 16.632 1.1543 -0.6016 0.653024 49.633 27.3704 21.0077
434 1 Ar 0.257387 1.51796 0.494731 0.695794 0.69372 0.79643 -2.8601 2.98281 1.41453
439 1 Ar 16.4154 1.79474 1.73013 0.82816 0.122285 0.72411 -4.47362 -6.68039 -9.68858
442 1 Ar 1.36977 2.46862 1.01695 -0.934296 0.510274 1.091 -4.44843 4.77797 1.55814
449 1 Ar 1.71839 2.40634 2.1444 -0.272267 0.612627 -0.292628 -24.7658 -9.68032 -8.74586
446 1 Ar 1.83178 1.56256 1.32079 -1.3316 0.984145 1.28029 -8.49417 29.5083 9.24887
489 1 Ar 3.25942 2.95503 0.647482 0.707411 -0.375323 -1.21764 -13.1207 -0.801373 4.05507
453 1 Ar 4.16539 2.34269 1.19455 -0.490239 1.54585 -1.05092 -5.7974 4.30651 2.75514
91 1 Ar 2.88528 1.80666 0.685582 1.04708 0.0275987 1.0006 1.01679 5.14103 -8.70902
413 1 Ar 5.04146 2.28322 0.547975 -0.105621 0.635818 -0.892619 3.93908 5.71574 0.651676
15 1 Ar 5.8976 1.14956 16.504 -0.816077 0.401756 0.551939 4.853 2.98606 -0.357604
529 1 Ar 6.18906 2.37675 1.27415 0.764993 -0.815188 -0.950312 -4.45463 -3.26677 -7.40073
490 1 Ar 6.02975 2.73825 0.081292 0.555093 -1.76098 1.56477 -7.45165 -12.1092 -9.81729
95 1 Ar 6.79988 1.25782 1.69355 0.687744 -0.723412 -1.30832 24.7819 1.67232 -20.661
458 1 Ar 7.92872 1.31549 1.79606 -0.950086 0.483119 -0.924626 4.72172 -0.405702 8.88317
94 1 Ar 9.03776 3.04702 1.1917 0.00397558 0.123501 0.78582 -0.887997 9.6787 1.62609
54 1 Ar 8.37633 2.25572 1.47734 0.5132 -0.733376 0.460502 -5.09102 -6.07329 7.82123
25 1 Ar 11.2109 1.33504 1.23519 -0.834493 -0.800375 0.595469 8.21906 -0.596658 10.5241
65 1 Ar 10.5768 1.52578 15.9824 0.609315 0.141633 -0.338985 -15.5194 -14.9591 24.8143
68 1 Ar 9.7762 2.42569 0.785345 1.17444 0.088619 -0.0251766 2.60877 0.271318 1.57273
107 1 Ar 10.8183 2.14347 16.7654 -1.38678 -1.02268 0.483925 -6.12414 10.9433 17.157
61 1 Ar 8.73757 2.61748 0.226733 -0.416005 0.260106 -0.645359 -1.92401 -2.26659 2.87596
27 1 Ar 11.661 1.61772 0.3074 1.36549 -0.187931 0.0692145 9.42154 -0.92654 -0.477225
67 1 Ar 12.2513 3.19186 15.9149 1.68155 1.14966 0.578523 2.91438 -1.95795 -15.3679
3663 1 Ar 11.5379 1.93986 15.9475 2.03187 -0.0430549 1.01229 16.1388 0.89631 19.9077
73 1 Ar 13.6189 2.90013 0.475341 -0.613106 0.553515 -0.380854 -5.39499 10.3562 8.20008
513 1 Ar 14.5499 2.40602 0.786675 0.954037 0.292154 -0.204659 -5.08023 -14.7381 4.04056
75 1 Ar 12.6923 3.20223 1.06061 -0.100963 0.469285 -0.899754 -25.5287 -5.80791 -17.3173
36 1 Ar 14.248 1.17542 0.638315 -0.690517 -1.57767 -0.84641 7.64259 -6.645 7.27486
74 1 Ar 15.4176 1.74866 1.26627 -0.127185 0.0398487 1.09652 -5.11091 2.61659 -2.99877
441 1 Ar 15.512 2.91058 1.29212 -0.637697 -0.577777 -0.730639 1.19745 -2.79563 -1.91494
402 1 Ar 0.190088 2.49303 1.2305 0.081796 0.703383 1.62515 3.7408 -1.15185 5.55904
525 1 Ar 0.328139 3.49679 0.980773 -0.0856103 0.724725 0.17986 1.69736 -9.18802 -3.46068
120 1 Ar 16.7085 4.3093 0.507833 -0.0903811 -0.692375 0.321559 -5.77296 9.7476 -7.09827
521 1 Ar 1.28707 4.74245 1.12844 -1.42857 -0.00830062 0.0251657 -3.98558 12.2001 -4.48748
50 1 Ar 3.26122 4.081 0.248327 -1.07424 0.561661 -0.896212 10.2001 -18.7948 -3.68183
82 1 Ar 2.34511 4.50699 0.298909 -1.23948 1.53452 -0.867889 -9.13055 -0.305897 3.40826
486 1 Ar 1.29232 3.71049 1.16795 -0.267005 0.186473 0.862718 8.73299 -23.8874 -10.5562
530 1 Ar 4.33691 3.5004 1.73272 0.936744 -0.109007 -0.129621 -1.95312 -15.2489 -0.16034
92 1 Ar 4.41822 4.24386 0.755783 0.478839 0.189779 -0.840715 -23.6707 -10.7171 -1.07652
90 1 Ar 5.73499 4.35209 0.377846 0.848771 0.31339 -0.203233 19.658 39.403 -5.60647
131 1 Ar 5.15457 2.77577 1.50878 -0.173979 2.62357 0.261492 4.70036 4.23345 3.51563
3689 1 Ar 5.22517 3.51536 0.263174 -0.12058 -1.899 0.845912 -19.1239 -24.0603 -12.4322
3692 1 Ar 6.12125 3.44368 0.821541 0.56723 1.27885 1.04514 -3.97093 7.89401 7.80834
136 1 Ar 7.01419 3.80179 1.25347 0.826531 -0.0701972 -0.211574 26.3246 8.0796 -4.13763
500 1 Ar 7.20066 2.48286 1.60111 -0.424447 -1.46443 -0.492861 -7.72321 6.51426 -23.3252
144 1 Ar 9.06713 4.14363 1.41697 -0.400771 0.463364 0.929558 8.50954 15.2206 35.3406
493 1 Ar 7.74829 3.72452 0.188265 -0.801582 0.0660394 0.0657934 -8.20717 -31.3224 73.3098
135 1 Ar 8.85778 3.92387 0.470574 -0.561457 1.14498 0.0024055 -8.54663 -15.7488 -35.9611
102 1 Ar 9.84438 3.7389 0.847073 0.525289 0.0909015 1.51242 9.33944 -4.36219 -23.4306
103 1 Ar 11.0383 3.33659 0.471247 0.332161 -0.260231 -0.397126 14.3714 17.0287 -20.6512
112 1 Ar 11.7153 4.07355 0.972347 -0.747527 -1.94133 -1.17537 3.16914 -0.834748 -8.05444
110 1 Ar 12.7228 4.22616 16.0191 0.380474 -0.573263 0.823935 0.509504 -5.23426 -5.10595
155 1 Ar 14.5431 4.91553 16.7196 0.309332 0.486402 0.632231 -14.3915 -1.22076 1.62619
76 1 Ar 12.0134 3.26349 0.116466 -0.234122 0.071798 0.0250863 8.09245 3.95705 6.50999
553 1 Ar 13.7805 3.94416 0.00165555 1.63883 1.55365 -0.855654 -12.4807 5.67929 15.051
115 1 Ar 14.6169 3.94342 16.2138 0.376693 -0.32114 0.267784 23.1829 3.73352 3.35279
114 1 Ar 14.4725 4.466 1.01919 0.0439405 -0.350363 -0.6603 -19.8445 -8.15368 -4.0522
159 1 Ar 15.56 5.15155 0.103322 1.76404 0.556291 0.0375937 2.85483 -0.527972 27.2216
509 1 Ar 13.4173 3.89655 1.18572 -0.0477804 0.711556 0.120332 16.2586 15.2562 1.21093
117 1 Ar 15.4286 4.07539 0.944273 1.55281 2.32005 -2.19705 -1.76781 -1.56525 -11.9992
84 1 Ar 16.2482 3.25763 0.44904 1.46605 0.990507 -1.0422 -0.226334 11.7245 13.9009
81 1 Ar 15.9542 4.12228 16.5085 0.0832029 0.135432 1.69048 -1.32822 -7.25302 0.407987
124 1 Ar 0.379921 5.26219 0.807857 -0.733191 1.15213 0.946071 19.8822 -5.02954 -7.12887
163 1 Ar 1.75695 5.31792 0.296199 -1.46951 1.20951 0.650912 -15.3894 17.2476 6.97689
565 1 Ar 2.16769 4.18155 1.33254 -0.447162 0.131959 -1.18877 13.7266 14.6021 13.919
128 1 Ar 2.70945 5.41045 0.793305 1.13335 0.0490542 0.994049 2.16378 11.4649 -3.22059
526 1 Ar 2.64813 5.97971 16.7123 0.276856 0.190551 0.378758 -9.23458 8.5755 4.99261
165 1 Ar 3.0123 4.77284 1.51863 0.16665 -1.13027 -0.626798 -3.3246 14.7581 18.3195
491 1 Ar 4.08073 5.50961 2.3725 1.30958 -0.23894 1.17141 11.8973 -13.4358 -20.7811
129 1 Ar 3.71861 5.00829 0.122038 1.06387 0.747908 -0.957929 5.82919 8.56755 2.08964
3731 1 Ar 4.83281 4.73405 16.7473 1.27613 1.84278 -0.961376 -11.7742 2.02491 -8.51907
133 1 Ar 5.30153 3.99428 1.21552 -0.31964 -0.296879 1.07506 0.889928 -9.65279 14.1733
96 1 Ar 6.81665 4.33906 0.367639 0.365966 -0.667602 -0.260223 2.47613 -10.7826 -25.0954
3735 1 Ar 6.46971 5.89901 1.29932 -1.29098 -2.05672 -1.13451 -12.0358 7.11356 -11.368
130 1 Ar 5.10374 5.01332 1.04738 1.19267 -1.00875 -0.180784 3.72527 8.92117 -2.69309
533 1 Ar 7.55133 4.19544 16.1985 0.0745389 0.0518557 -1.45458 -23.9596 24.8448 -75.5181
573 1 Ar 7.31932 5.07669 0.883976 -1.0181 -0.172157 0.0898186 -0.854772 -19.3881 -8.95614
538 1 Ar 7.85797 5.9861 0.077103 2.15261 1.00353 0.258551 27.212 0.867949 -25.6863
534 1 Ar 8.09847 4.6746 0.101163 0.534842 -0.3937 0.851265 20.9108 26.1793 7.06362
544 1 Ar 9.56744 4.70917 0.283226 0.844623 -0.466748 0.134385 -4.04384 -1.44713 -3.71424
541 1 Ar 10.2882 4.71169 2.11658 0.901256 0.182754 -0.265073 2.30782 12.7572 -1.44255
145 1 Ar 10.5867 4.28908 0.170232 0.968594 0.0798188 -0.262463 4.24688 0.311144 -9.09015
148 1 Ar 10.4107 5.28352 0.578057 0.601203 0.0355798 -0.0499717 29.0973 -6.94755 3.17637
546 1 Ar 11.6283 5.15952 1.37289 0.585603 -1.03891 -1.12251 -6.09252 -25.5244 -10.3526
147 1 Ar 11.3105 5.34652 16.7278 1.19536 0.187639 0.437599 -2.07632 2.23019 0.0410301
3711 1 Ar 9.80135 5.08055 15.958 0.758972 -0.0987349 0.457451 -7.88102 -4.03732 5.13636
151 1 Ar 12.2405 5.12134 0.441749 -0.00293643 -0.376485 0.26607 -8.99546 -8.2223 4.48325
591 1 Ar 12.6953 4.15031 0.316109 -0.902736 0.0127092 -0.816988 1.74107 -3.91343 4.59948
191 1 Ar 13.7694 5.884 0.0383556 -0.934014 -0.834278 0.304699 0.731891 2.57007 -1.73092
599 1 Ar 14.8963 5.9826 0.041157 1.19344 0.63316 -0.254532 -5.32158 23.0446 -12.2764
596 1 Ar 13.6969 6.2876 1.68646 0.433816 -0.758985 0.355941 -4.53377 -28.7299 13.9725
121 1 Ar 16.3199 5.43036 16.2644 0.994396 -0.572233 0.388275 -15.5728 11.7995 -1.39324
518 1 Ar 15.3682 5.99514 1.00417 -1.18003 -0.0525074 0.365489 -5.17921 11.9953 -6.93211
598 1 Ar 15.2947 6.9262 0.41162 0.839944 1.08286 1.06717 -6.12612 3.06141 -3.50492
605 1 Ar 0.905615 6.18605 0.240611 -1.18852 0.189149 -0.171449 -31.3938 -19.4504 -5.37341
158 1 Ar 16.4917 7.15077 0.819046 0.234917 -0.228348 0.759131 1.85451 4.90208 3.51678
205 1 Ar 1.18879 7.43908 0.210688 0.936788 -0.560913 -0.594415 -6.49229 9.03773 1.35532
563 1 Ar 1.19327 5.8568 1.32286 1.30535 -0.337934 0.857815 -13.284 6.88321 -7.51042
522 1 Ar 2.15523 6.34834 1.3982 0.414193 -1.97132 -0.068156 -0.358527 0.778532 15.3951
132 1 Ar 3.85558 6.36041 0.32853 0.259814 0.117717 -1.17501 -1.99012 -0.602553 5.28031
609 1 Ar 1.83046 7.64637 1.12783 -1.11232 1.21982 0.798017 6.5134 4.31264 -6.70155
173 1 Ar 3.561 6.62236 1.61505 1.54242 -0.927126 0.608594 -3.33563 4.18038 -15.2072
174 1 Ar 4.83351 6.48229 1.03133 0.512135 -0.80838 -0.12758 -11.9723 12.3227 -13.475
170 1 Ar 3.32098 7.29671 16.8136 -0.221535 0.167209 0.724753 5.12696 15.9853 2.7771
610 1 Ar 4.71937 7.1571 2.00866 0.0846841 0.571567 0.744075 -19.0961 -19.5399 -1.62598
178 1 Ar 5.69817 7.04288 1.27615 -0.70764 -0.877064 -0.785229 -25.4091 9.22779 12.5019
3375 1 Ar 6.02137 6.72894 16.4185 1.23652 -0.298757 -0.102893 5.05985 41.6673 -15.9599
618 1 Ar 7.52219 6.03976 1.00393 -0.662564 -0.401068 -0.12425 -10.888 40.5084 26.6037
141 1 Ar 8.08888 7.33329 0.00861742 0.650987 1.08932 0.0930773 -23.8124 -10.574 22.691
180 1 Ar 8.72961 5.2144 0.819851 0.349919 0.159606 0.0492729 12.9576 -22.1128 -31.2344
183 1 Ar 9.58426 6.57107 16.6596 0.334946 0.635933 0.254678 4.0601 -32.3 -6.36262
219 1 Ar 8.65174 6.31378 0.713786 -0.997209 2.0019 -0.168044 -1.88301 10.0656 2.11904
585 1 Ar 9.55494 5.77638 0.631983 -0.0386279 -1.6318 0.812323 -3.93764 33.1209 -15.5023
586 1 Ar 10.4029 8.2115 0.646383 -2.46267 0.673656 -0.339741 -4.92565 -11.4619 7.23467
3785 1 Ar 9.71116 7.0557 0.908152 1.07362 -1.05506 -0.691795 1.15849 -5.6036 5.01273
181 1 Ar 10.4378 5.9963 16.5133 -0.60697 0.00124581 1.41414 7.48176 -5.89255 8.32477
187 1 Ar 11.3203 6.48764 0.390761 0.464884 -0.754574 -1.18489 2.09951 4.05899 -21.0588
188 1 Ar 10.7901 8.52373 16.5127 0.743347 0.483998 0.133079 0.46007 -5.38382 0.752553
229 1 Ar 12.6026 7.77976 1.60258 0.0135647 1.40049 0.310564 14.3992 26.1922 -13.4494
190 1 Ar 12.8432 6.64816 0.543177 1.3138 -0.21339 -0.264347 -1.24127 38.2887 -5.57251
3790 1 Ar 14.4391 7.57017 0.764975 0.278506 -0.559505 -0.595782 16.4778 -2.0021 1.04961
3750 1 Ar 12.4561 8.50235 15.8628 0.581384 -0.494424 0.563964 22.0914 -60.2791 1.25297
3760 1 Ar 14.1985 8.36865 0.173041 -1.54153 0.429102 -1.11666 9.28541 -2.64586 -3.11856
199 1 Ar 15.4249 8.66215 0.747162 1.37115 0.98553 0.618044 43.8188 -22.7885 -2.44709
560 1 Ar 14.7578 6.90368 1.60802 -0.687504 -0.475385 0.0425237 21.287 13.9554 34.9158
594 1 Ar 14.6474 8.04462 1.87273 1.64582 0.389013 -1.00277 -8.31249 -3.53596 -17.4489
3799 1 Ar 0.192423 8.26823 16.1255 -0.110194 1.08539 0.0168881 10.0991 -9.16089 11.1264
597 1 Ar 15.5314 7.58527 1.18879 -0.344984 -0.312006 1.15373 -31.603 6.921 10.9573
608 1 Ar 0.196357 8.95439 1.08582 0.809225 -0.526354 -1.3433 -5.8477 -7.18647 19.9166
207 1 Ar 1.2403 8.55168 0.851696 1.01418 -1.02217 0.328335 0.183627 -4.32557 4.14175
201 1 Ar 0.301382 8.12938 0.53257 -0.410526 0.602613 -0.398083 -3.79436 -23.1413 -19.3451
167 1 Ar 2.23403 7.87145 0.0869517 0.305746 0.347725 -0.0305818 2.70178 -1.90661 1.18324
210 1 Ar 3.69356 7.74254 1.87535 0.367879 0.441022 1.48794 -27.3397 -18.9672 -14.9907
3772 1 Ar 4.07074 7.26506 0.941926 0.00683282 -0.108858 -0.456689 -9.57709 -5.74422 17.265
211 1 Ar 5.41971 7.87035 2.02276 -1.85553 0.290721 -0.608708 33.4735 13.835 1.21669
3774 1 Ar 6.6126 6.93312 0.929408 -0.830546 -0.383894 0.058424 26.6501 -4.19528 -9.86099
651 1 Ar 6.33276 7.90005 16.6848 -0.0698597 0.458254 0.141931 16.0278 -6.43362 -3.56974
620 1 Ar 5.4085 7.5661 0.257889 -0.116172 0.174791 0.0992066 8.83677 -6.82088 4.33193
215 1 Ar 8.58916 7.90281 16.16 1.20292 0.224704 0.622919 10.8733 17.1258 -27.4405
297 1 Ar 6.24319 8.10967 0.942603 0.0301427 1.38428 -0.92312 -13.4348 4.13437 -2.64318
224 1 Ar 7.49336 8.46125 1.39495 -0.776072 -1.6184 0.569703 16.0107 -0.158597 -12.1744
3779 1 Ar 7.19385 7.77801 0.624133 0.573587 0.366871 -0.5477 12.074 -3.48874 -8.68061
3821 1 Ar 8.36234 8.43129 0.22316 -1.05163 -1.29365 0.205627 -8.39385 -3.79908 12.6297
225 1 Ar 9.23932 8.92155 16.5003 1.11509 -0.826268 0.114625 4.0167 -8.92651 2.10914
582 1 Ar 10.1228 9.22217 0.311425 -1.85061 -0.159822 0.690583 3.51253 1.84049 1.59554
222 1 Ar 9.09981 9.37662 0.792924 0.265064 0.483409 0.13434 -15.7444 -5.23226 -9.14597
3791 1 Ar 12.508 8.30706 0.170037 -1.01262 -1.34795 -1.13108 2.4433 -5.99155 1.21215
3836 1 Ar 11.4419 8.44187 0.582285 0.328363 -0.919291 0.176947 11.7912 -18.666 2.27166
3796 1 Ar 12.361 8.82563 1.15132 -0.0845421 -0.40364 -0.418975 -2.7605 -12.5753 1.93304
195 1 Ar 13.3665 8.58669 0.783458 0.226434 -0.377117 0.595926 -2.99385 4.25015 -8.85066
636 1 Ar 13.1751 9.66328 1.374 -0.225783 0.513299 0.348171 -27.5089 -8.6954 50.0862
197 1 Ar 14.5908 9.04212 1.01809 -0.753994 -0.548674 -0.327175 -47.0741 18.76 12.1867
237 1 Ar 13.6514 9.74274 0.559341 -0.480085 0.813165 1.11009 31.3462 -0.0724536 -57.3682
164 1 Ar 16.3253 8.15638 1.3805 -0.886247 -1.63829 0.962408 17.3193 13.7962 -12.4157
3803 1 Ar 14.7044 9.91905 0.145288 0.768496 -0.486954 0.255888 3.74517 -1.40468 18.0778
240 1 Ar 15.9052 9.19946 1.51036 -0.816561 -0.754337 0.556383 15.4937 27.1587 -9.78448
3808 1 Ar 16.3837 9.00908 0.249853 0.132031 -0.725521 -0.561933 1.67028 -30.2758 -1.964
208 1 Ar 0.599835 9.33973 0.197288 1.61662 -0.0166934 -1.29608 4.83784 0.420973 -4.41487
641 1 Ar 0.592054 9.72396 1.56818 -0.126929 -0.911976 0.898343 15.4301 14.2638 22.3723
242 1 Ar 2.76031 9.37618 16.2797 1.12372 -0.18018 -1.01882 5.07167 1.54275 3.9932
612 1 Ar 1.53744 9.57674 0.874256 -0.124168 -1.61971 0.63314 -1.54508 -39.0759 19.9266
212 1 Ar 1.79427 10.4022 0.433461 1.16934 0.0996737 0.872913 31.0022 51.8681 4.96873
213 1 Ar 3.88965 8.49089 0.791188 0.109389 0.664005 1.46103 3.99014 -0.443014 -4.40718
649 1 Ar 4.04594 9.64748 1.17003 0.664164 -1.48514 -0.20368 -1.57514 -8.44674 6.79549
1010 1 Ar 2.93549 7.80259 1.0003 -0.425553 -0.0973994 0.721471 17.7243 -29.4066 3.76231
3812 1 Ar 2.75652 9.65842 0.510766 0.259208 0.0756243 -0.435206 -2.28574 22.7549 -2.35179
653 1 Ar 5.12042 8.63442 0.613337 -0.86436 0.215505 0.0228178 7.29849 -14.3213 9.94397
3856 1 Ar 4.74138 10.7133 0.771995 0.663146 0.603214 -0.171018 8.30856 -8.27217 -1.98874
3815 1 Ar 5.99433 9.35472 0.0964243 0.368215 -0.698452 -1.22548 1.03098 1.55589 8.43221
655 1 Ar 5.76933 10.4062 16.8105 -0.924813 -0.666422 0.981225 -1.39759 6.21977 1.20041
3820 1 Ar 7.18361 9.75349 0.0657362 0.109453 -1.18231 -0.88072 6.35694 19.3428 -4.99541
218 1 Ar 6.76254 9.41779 1.05716 0.236242 -0.343165 -0.35762 -1.86089 14.2486 18.1142
253 1 Ar 5.78912 10.2099 1.27949 0.454643 -0.789858 -0.314309 -6.35589 -8.13039 -5.09036
255 1 Ar 7.34015 9.1065 2.18663 0.343601 0.341372 -1.09605 -4.8114 8.93429 -15.3216
223 1 Ar 7.91472 9.22421 0.774194 0.62599 -0.366812 1.61216 -9.51844 -4.7789 -29.8591
665 1 Ar 7.88827 10.5632 0.991303 0.124822 -0.684356 -0.930852 16.8337 1.05208 7.3116
3859 1 Ar 8.1016 8.94178 16.1334 -0.265088 1.15284 1.12655 -1.06196 -4.3649 0.279458
3784 1 Ar 8.48349 10.0653 0.213083 -0.263463 -1.35966 -1.34505 -16.0157 -0.179168 -2.21711
669 1 Ar 11.0389 9.02909 1.29815 0.2752 0.635309 -2.15702 -6.31035 13.6068 15.0576
626 1 Ar 9.80494 10.0453 1.08823 -1.84524 0.305227 -0.243582 22.2943 17.2991 -10.9113
267 1 Ar 10.4166 10.5231 0.201634 -1.59095 1.12864 1.1051 4.981 0.237315 3.1273
228 1 Ar 9.48833 10.0453 16.7664 0.735595 0.579358 0.899825 2.72808 1.58128 3.55732
672 1 Ar 10.8483 10.1633 1.34535 -0.0957301 -0.191853 -0.0949073 10.542 -14.1113 -15.9877
3907 1 Ar 11.98 10.2053 16.5364 1.16421 -0.62274 1.08746 -8.04059 -3.51411 -3.1018
230 1 Ar 12.5501 9.54935 0.434846 -0.468464 -1.41413 1.07269 -0.942141 -0.680764 -7.07684
3871 1 Ar 12.1854 10.6653 2.49 0.912784 0.301097 1.00057 -29.6996 6.01299 10.5535
3795 1 Ar 15.4147 10.2605 0.833903 0.59494 0.0244819 -1.26873 4.04699 6.47757 15.2412
194 1 Ar 13.9453 10.7017 0.974035 0.17204 -0.845721 -1.30058 -0.0302699 2.20714 -0.883615
315 1 Ar 14.98 11.0923 0.111263 0.277461 1.17381 -0.883013 -19.2019 -20.7668 7.61978
234 1 Ar 15.8894 9.83028 0.0173685 0.445772 1.55765 -0.339731 -10.082 20.1594 -16.6102
717 1 Ar 16.5012 9.90465 0.957297 -0.160296 -1.3991 -1.0044 0.0971136 8.3274 -3.81936
680 1 Ar 15.6414 10.1323 2.06523 0.0388036 0.603824 -0.707985 -2.64573 3.16498 0.79789
279 1 Ar 0.785437 10.2701 0.662064 0.0395669 -0.315642 1.33009 -20.778 2.30963 -7.68784
248 1 Ar 16.7106 11.777 1.26294 -0.702545 0.995364 -0.0158818 5.9135 0.783923 -5.0321
241 1 Ar 0.103223 11.7669 16.6733 -1.54768 2.02762 0.382561 -1.86439 2.62073 0.381086
245 1 Ar 1.01205 11.3581 0.917724 -1.35752 0.613386 -0.716526 -10.7679 -1.29937 -8.8481
287 1 Ar 2.02896 11.2651 1.03987 1.33206 -1.08846 0.615419 13.665 8.94676 4.7264
331 1 Ar 2.57684 11.0715 0.112794 -0.952196 -0.594678 0.618133 22.0463 16.1013 15.9711
725 1 Ar 2.48634 12.1579 0.593766 2.22322 -0.614654 0.137081 -18.71 13.0722 -23.9523
1089 1 Ar 4.89658 11.4089 1.57898 0.39207 -0.467863 -1.16847 -9.2186 12.6132 -0.255035
1090 1 Ar 3.22944 11.5353 0.862797 0.442587 0.420866 -1.6534 4.71528 -16.7717 4.42352
249 1 Ar 3.59745 12.5893 0.475256 0.296689 0.972866 0.92043 -3.05873 -30.4315 -32.1941
291 1 Ar 3.67448 10.4474 0.612957 -0.544369 0.358353 1.43733 -8.47237 8.76415 -11.7447
250 1 Ar 5.70979 12.3179 1.08831 0.57674 -0.522018 -0.0135049 -4.07703 4.25223 6.37686
257 1 Ar 6.84629 11.6604 0.754963 0.638748 -0.104225 -0.450246 4.19773 -6.5041 -11.6889
693 1 Ar 7.37592 11.9651 16.5574 1.34207 0.0573504 0.760029 -14.5272 3.78825 -0.9213
259 1 Ar 7.10908 10.8418 1.9569 -0.147783 -0.55668 -0.268363 -12.6917 -15.2976 7.51496
258 1 Ar 7.36046 10.8358 0.0857283 -0.279504 -0.76626 1.7352 6.54161 7.77278 -26.0483
668 1 Ar 8.98552 10.95 0.672878 0.814346 0.228941 -0.375847 5.40628 0.0993311 10.0267
666 1 Ar 10.9587 11.1837 1.28234 -0.818704 -0.252758 1.1363 28.1073 1.83222 8.40905
707 1 Ar 10.099 12.4988 0.369534 0.856711 -0.802395 -1.57407 22.7766 5.247 18.6327
272 1 Ar 11.4903 12.9484 1.49584 0.703338 1.00255 0.319723 -9.97949 -5.16665 -3.5483
3866 1 Ar 10.8948 11.5767 0.209688 0.472649 0.903293 -0.362208 16.4233 -0.905626 28.6201
3872 1 Ar 11.2764 11.4977 2.26924 0.133182 0.980281 1.28308 -3.06258 -7.97299 -1.05501
270 1 Ar 11.8625 11.9834 0.863821 -0.297372 -0.388156 -0.553067 -4.24283 3.53683 -6.41532
3949 1 Ar 12.7889 11.721 0.0738382 -0.051587 0.130444 0.886453 8.99871 -10.3132 54.0153
273 1 Ar 13.0191 11.3361 1.10662 0.330738 0.829728 0.104138 -10.4395 15.3489 5.42441
3435 1 Ar 13.9215 10.9341 16.6178 0.180473 -1.19699 0.428171 -3.30561 -24.567 10.1784
353 1 Ar 12.9725 10.6328 1.86082 0.094713 -0.347663 -2.09284 8.55576 -18.8138 -29.5845
3916 1 Ar 13.8468 11.7129 0.586873 -0.389361 0.078185 -0.540421 6.84314 3.70791 1.08945
3884 1 Ar 14.3213 12.6885 1.18094 -1.25376 -1.33782 -0.586689 3.19897 -3.064 -39.2546
319 1 Ar 15.7573 11.6504 0.447685 0.376466 -2.12219 -0.947924 21.1754 10.246 3.74076
718 1 Ar 16.0656 10.9785 1.49334 -0.934468 0.658181 0.371153 4.92725 -7.13247 -11.4705
278 1 Ar 14.5768 12.6759 0.128695 0.406808 0.599925 -0.239315 34.0586 -1.789 8.67249
282 1 Ar 0.627106 12.3634 0.691357 -1.17142 -0.567717 -0.43596 15.1781 -13.923 -9.05044
285 1 Ar 2.96338 12.4075 1.45566 -0.968083 -0.471604 0.177006 4.57396 11.9621 -0.82556
1171 1 Ar 1.55354 13.2774 0.904342 -0.853051 -0.218623 0.686715 -36.6977 -9.97066 7.57134
732 1 Ar 2.506 13.489 0.901567 -0.191648 1.16426 -0.63582 45.2438 15.1599 -12.9869
690 1 Ar 3.64115 13.2178 1.21041 -0.343114 0.0474656 -0.904325 -0.82465 24.018 27.1898
332 1 Ar 4.35171 14.0377 1.00331 -0.571271 0.318524 -0.554785 5.10637 -1.92712 3.0081
729 1 Ar 4.62799 12.6587 1.13343 -0.214507 -0.795628 2.02956 1.30684 -7.65889 -15.158
1094 1 Ar 5.6583 13.1174 1.85522 0.0104391 -1.7858 0.144422 -1.21887 9.54198 -8.97468
333 1 Ar 5.44923 12.8701 16.2333 -1.03067 -0.486209 0.276579 0.919368 4.36841 11.992
694 1 Ar 7.38901 13.6875 0.151601 -0.891585 -0.582313 -0.494176 10.8304 -11.1701 -27.1469
295 1 Ar 7.70444 12.7529 0.372824 -0.228108 -1.06358 -0.554538 1.24971 -24.2398 -4.89267
700 1 Ar 6.65973 12.7212 0.835773 -2.04796 0.00507399 0.693554 -13.7332 -10.2985 -6.47468
302 1 Ar 8.29316 13.5178 0.803959 1.24217 -0.540321 -0.152089 17.7668 -3.72152 -6.0526
3864 1 Ar 8.06914 11.5696 0.416762 0.706959 -1.04183 1.20988 10.8964 2.30541 12.6786
3903 1 Ar 9.27845 13.6169 1.31842 0.610152 -1.71665 -0.152571 -16.5106 -14.365 10.7095
266 1 Ar 9.33697 13.5713 0.263409 1.43045 0.241411 -0.254389 -4.46989 5.5895 -3.07289
308 1 Ar 10.365 13.3067 1.13654 0.112381 -0.391018 -0.0508439 5.26794 -34.7117 0.22218
305 1 Ar 10.0198 14.2185 0.970456 -0.312082 -0.442758 -0.319738 0.824698 41.6067 -12.8089
3947 1 Ar 11.7765 11.7748 16.4412 0.243488 0.192859 -1.06862 7.07956 3.2971 4.64387
3951 1 Ar 11.2727 14.3669 0.449823 -0.932608 -0.364803 0.164934 -5.72915 6.07009 -8.68964
385 1 Ar 11.1558 12.8824 0.407107 -0.175559 1.14444 -0.282075 10.3464 -1.00184 15.9088
310 1 Ar 12.3615 12.8659 0.0647641 -1.64319 -1.44873 -0.438156 0.864497 -13.1208 -6.49792
360 1 Ar 13.3319 12.4223 1.17931 -0.167869 0.38059 -0.448581 1.04153 -11.5978 -2.99267
3920 1 Ar 14.3574 13.9418 1.6499 1.78489 0.151556 -0.408331 -10.9689 -9.73803 -11.45
354 1 Ar 13.6026 12.6861 0.019503 0.991348 -1.65228 0.564511 -35.0008 3.76538 18.0369
3959 1 Ar 14.5783 13.6704 0.405326 -0.200174 0.705521 0.641874 -25.7102 9.02606 0.904643
357 1 Ar 15.3359 13.9216 1.01489 -1.05946 0.612912 0.740613 13.4992 14.4094 16.5232
322 1 Ar 16.0599 12.6203 16.2614 -0.0775027 0.692064 -0.114116 -6.9323 -6.56684 -4.53434
321 1 Ar 16.41 12.6272 0.609905 0.390532 0.966965 -0.160251 -7.16467 -0.872888 0.15941
318 1 Ar 15.3624 12.8911 0.816807 -0.0696209 -1.49843 -0.545224 15.6638 -6.84727 -32.9933
328 1 Ar 0.438768 13.3974 0.68378 0.247971 0.680083 0.255173 1.07902 3.625 1.82603
765 1 Ar 0.854198 15.4821 1.30812 0.677408 -0.0180666 1.61255 0.399409 -5.46862 9.31661
368 1 Ar 0.791559 14.4435 0.913871 -0.405528 0.773209 -0.435659 3.47587 -4.4161 -6.77566
768 1 Ar 1.90601 15.0904 1.82266 -0.0765469 -0.210701 -0.302101 -2.34046 1.06247 3.88867
367 1 Ar 1.90141 14.4464 0.838793 -0.598158 -0.0979359 1.24205 -3.01904 -16.8865 6.95691
726 1 Ar 1.53363 13.7409 16.7212 -0.304018 0.217457 -0.982376 -11.7815 13.3947 0.141915
371 1 Ar 2.3776 14.2376 16.4216 -0.0917877 1.37195 -1.0821 13.8718 8.80523 -1.82008
336 1 Ar 3.94227 15.0322 0.523689 -0.765832 -1.10291 0.94818 -1.84512 -26.7358 1.48878
730 1 Ar 3.20906 13.7458 2.05116 -0.743363 -0.401749 -0.124978 19.7245 -5.25194 -3.58088
335 1 Ar 5.55214 13.4411 0.822455 0.527368 0.422607 -2.48215 -2.6125 -0.276292 -7.0081
734 1 Ar 6.04693 14.8411 0.784553 -0.359837 0.0992602 -0.0593238 -5.54531 7.45248 4.33171
735 1 Ar 5.17504 14.6724 1.44528 0.878808 0.609082 -0.515751 -1.31683 -2.67622 1.25739
1177 1 Ar 6.03547 14.6046 2.19004 -3.01561 0.454844 -1.34006 -22.546 14.9798 -1.57805
733 1 Ar 6.28213 13.9772 1.44809 -1.1032 -0.188785 0.473835 1.1363 -18.9376 -22.6202
780 1 Ar 6.3625 15.7364 1.60247 -1.12045 -0.529758 0.204047 -5.93477 7.27612 -22.577
1137 1 Ar 8.14162 15.3171 1.05709 1.48817 1.01074 0.249596 9.82392 -74.8185 38.8775
343 1 Ar 8.28389 16.1907 0.750928 -2.61213 0.213109 -0.059691 11.8677 69.2778 -20.2154
747 1 Ar 8.75794 14.427 0.767669 -0.489499 -0.738168 -0.701464 12.1987 14.3067 0.162365
337 1 Ar 7.67546 14.3854 0.841935 -1.36548 -1.28246 -0.750217 0.494511 10.3717 14.039
346 1 Ar 10.5802 15.2351 0.595272 0.637145 0.31568 -0.425418 -11.4145 -8.7822 -2.75325
342 1 Ar 9.51603 15.2002 0.516677 0.0333613 -1.39644 0.120357 -4.41727 2.76348 1.36131
345 1 Ar 11.8361 14.6708 1.33311 -0.813602 0.18072 -2.26509 -21.5286 12.4657 12.7777
348 1 Ar 12.624 14.5396 0.75352 1.03993 -0.508126 0.675556 29.9214 -5.49193 -4.49309
786 1 Ar 11.3452 15.4407 -0.0091473 -0.172541 0.18254 -0.978784 35.266 -15.7168 -1.03834
3910 1 Ar 10.6625 14.6397 16.3383 -0.162426 0.521186 0.0987552 16.5972 0.962399 -2.10989
3912 1 Ar 13.0304 13.7296 0.026732 0.564202 -0.808119 0.644765 -2.13784 -1.49581 -0.189119
393 1 Ar 13.686 14.6071 1.07034 -0.333417 0.791019 0.535797 -5.51626 -5.49798 -4.61606
350 1 Ar 11.9933 13.6318 0.685446 -0.141804 -0.941747 0.234466 -14.4975 17.645 -5.53414
391 1 Ar 13.6407 13.5264 0.932597 -0.0294657 0.270065 -0.573691 -0.823795 -11.9907 -9.17035
4000 1 Ar 14.1675 15.4819 1.32046 1.15442 1.35014 -0.381045 16.3401 1.80922 26.9781
400 1 Ar 14.3163 14.8964 15.5213 0.589485 0.217232 0.384112 -1.52058 -5.24943 28.7726
3591 1 Ar 13.6662 14.5438 16.5256 -0.267791 0.956892 -0.894896 -1.82418 4.59943 -0.870143
758 1 Ar 16.4297 14.0898 0.963015 0.71202 -0.00259339 -0.330645 16.677 20.3625 -7.45952
395 1 Ar 15.9179 14.7231 2.10751 1.32102 0.40307 0.0354395 -1.85281 3.61875 -3.12726
358 1 Ar 14.7098 14.4304 16.3988 0.447696 1.09407 0.420483 -24.5294 -19.7921 11.6499
3 1 Ar 1.41611 16.5246 1.47153 -0.149839 0.123248 0.369721 -14.5779 6.03682 -43.531
4 1 Ar 16.238 15.9677 0.766745 0.6745 1.04856 0.476817 34.4357 -21.1492 19.4916
399 1 Ar 0.281932 16.5052 1.35349 -0.668083 -1.65462 -0.414932 2.36996 2.53593 1.16831
364 1 Ar 1.13979 16.1014 0.530207 -0.483672 -1.50987 -0.880565 -4.91601 8.43618 -16.3154
405 1 Ar 3.03801 15.3748 1.60797 0.387074 -0.522244 0.450525 -0.566162 -4.18591 6.23573
361 1 Ar 1.97224 15.4952 0.83205 -0.726041 -1.2447 1.15755 1.75905 11.6052 4.03581
762 1 Ar 2.7939 14.8239 0.406386 0.56519 -0.783018 -0.55405 8.41885 10.2654 -2.33617
409 1 Ar 2.92041 15.9558 0.728717 -1.10666 -0.184861 -0.401559 1.19065 -3.41131 0.773929
770 1 Ar 3.32451 14.2654 1.13499 0.160423 -1.275 -0.907618 -3.43267 5.49949 1.06313
11 1 Ar 3.58584 16.2106 2.29357 -0.191145 0.0621007 -0.00208944 3.82643 -7.72615 -13.3546
773 1 Ar 3.49826 15.5453 16.483 0.869643 0.712202 0.643283 -2.81405 22.1109 2.41869
374 1 Ar 4.5004 16.5344 1.69149 0.103172 0.000236889 0.0681849 -6.80072 8.01607 -3.41357
736 1 Ar 4.15225 15.2598 1.74522 1.18003 -0.672081 0.90206 -4.17752 7.23843 -10.8923
380 1 Ar 4.86066 15.5534 0.799505 -1.25922 0.956217 1.25612 16.7291 -7.34182 -1.63132
340 1 Ar 6.48372 15.8891 0.527397 -1.84152 -0.0129051 -1.51591 -10.3794 1.38463 25.7874
3979 1 Ar 8.84714 16.7234 16.4447 1.53489 -0.155865 -1.3795 -10.522 14.1545 -1.16244
419 1 Ar 7.46377 16.0644 1.51528 0.894493 0.897296 -1.00752 -5.15845 -5.22002 -0.0996485
741 1 Ar 7.47501 15.6919 0.410532 -0.709859 -0.399958 -0.0945299 -18.459 -9.42846 -17.4366
3621 1 Ar 9.12422 0.242916 15.3693 -0.789979 -1.4107 0.109574 -5.08441 -5.83492 1.53543
381 1 Ar 10.4275 16.3058 0.859719 0.856786 0.633468 0.549278 2.20453 -1.39501 -4.92926
742 1 Ar 9.77808 16.3945 16.7743 -0.431125 0.371541 0.196822 8.28053 -1.80495 0.145873
386 1 Ar 12.3446 15.591 1.52901 -1.00597 0.00448686 -0.231267 6.37469 8.03746 -4.61631
3987 1 Ar 11.6147 16.4253 16.6936 0.53853 0.954418 0.636845 -1.14064 18.4 -3.52007