ITEM: TIMESTEP
500
ITEM: NUMBER OF ATOMS
4000
ITEM: BOX BOUNDS pp pp pp
0.0000000000000000e+00 1.6795961913825074e+01
0.0000000000000000e+00 1.6795961913825074e+01
0.0000000000000000e+00 1.6795961913825074e+01
ITEM: ATOMS id type element x y z vx vy vz fx fy fz
1 1 Ar 16.4988 0.0107544 0.106003 -0.0427646 -0.386671 0.212314 14.4732 -2.97002 -16.3257
2 1 Ar 0.830391 0.552544 0.0642352 -0.278984 0.859605 1.06645 -15.2377 16.3568 0.465909
3 1 Ar 0.809504 16.5953 0.906432 0.76839 -0.570705 -1.56095 -28.5102 -21.2649 -40.6763
4 1 Ar 16.657 0.875981 0.681774 -1.36336 -0.89172 0.778063 25.9206 16.0603 16.5788
5 1 Ar 1.46449 16.5614 0.0217113 -0.00475421 -2.38106 0.0385237 30.2566 4.32126 2.60121
6 1 Ar 3.214 1.02709 0.71222 1.70061 1.09879 1.57457 9.30662 11.7513 -8.21397
7 1 Ar 2.45772 16.776 0.336454 -0.883414 -0.151389 0.184587 -8.43601 7.5434 2.41338
8 1 Ar 1.64334 1.09734 0.686464 -0.904121 -0.591165 0.740647 -13.428 2.53227 -7.18256
9 1 Ar 3.02566 0.214944 16.2567 -0.00475355 -0.826039 -0.102704 18.273 -0.166991 12.6748
10 1 Ar 4.01765 1.57667 16.5544 -1.75886 0.767876 0.238927 12.2448 1.05482 11.2266
11 1 Ar 3.8803 0.233888 0.458641 0.858266 -1.15463 -1.96316 3.53667 6.57356 -8.76203
12 1 Ar 4.17264 1.61379 0.9974 0.494446 -0.442975 0.113547 -3.17028 -11.2902 -14.9795
13 1 Ar 4.53435 0.0754818 16.359 0.421765 -0.0102501 0.658846 23.8946 -11.5438 14.5057
14 1 Ar 5.86175 0.938841 0.0730582 -0.371453 1.09571 -1.72012 4.96099 0.811016 -0.670491
15 1 Ar 5.85115 0.630466 1.09949 -0.581001 -0.340131 0.0728607 -5.63744 -2.45458 -9.4341
16 1 Ar 4.85772 0.838584 0.443969 -0.637755 -0.227357 0.0660493 -5.98954 -4.7217 3.01757
17 1 Ar 5.74838 16.6256 0.0916143 -1.83632 -0.573898 0.625288 36.0711 16.5703 12.9982
18 1 Ar 7.74609 0.916637 0.0429917 -0.263036 0.0190087 1.12513 7.68661 -2.80919 -10.3216
19 1 Ar 7.02681 16.3566 0.0113848 -0.41043 0.214352 -0.53395 2.57189 4.28751 -2.53821
20 1 Ar 6.95195 0.616252 0.673563 0.172557 -0.0856025 0.794734 -5.64252 -2.87114 7.67099
21 1 Ar 8.39221 0.0671038 0.19144 -0.941241 0.253474 0.529059 -5.52917 -26.2166 -54.164
24 1 Ar 8.15939 0.60658 0.960764 -0.486764 -0.841614 1.82254 4.6904 21.2589 22.8568
22 1 Ar 9.31138 0.502112 0.398076 -0.785309 0.218823 0.275476 -0.64032 15.6609 0.655615
23 1 Ar 9.86596 16.5999 0.937544 1.77835 -0.596333 0.883026 13.5332 5.57097 14.085
25 1 Ar 10.2106 0.120157 16.7815 -0.421031 -1.27967 0.877429 -4.41634 18.3756 -10.7965
28 1 Ar 10.2717 0.991494 0.790556 1.22881 2.25827 0.368392 9.23028 -3.45156 -13.2823
26 1 Ar 11.1603 0.782848 16.7359 1.43675 1.75965 0.108652 -22.1767 -1.8921 35.9454
27 1 Ar 11.1279 16.741 0.944951 0.442945 -0.207837 0.0253971 -0.99152 1.92198 0.339183
29 1 Ar 11.8426 16.7795 16.7402 -0.760407 -1.34915 1.17514 2.87466 22.6704 -0.237217
32 1 Ar 11.7731 0.921458 0.921637 -0.334203 -0.226897 -0.000729658 6.89783 -14.5694 -0.665078
30 1 Ar 12.5686 0.8692 0.143685 -0.271321 0.628592 -0.350114 -8.44989 40.9814 -39.7311
31 1 Ar 12.5579 0.189025 0.817749 -2.21065 -0.743698 -0.116953 5.31921 -35.5422 30.6684
33 1 Ar 13.3945 0.201747 0.0554967 -0.620144 1.27099 -0.471389 12.2517 17.7624 -1.19433
36 1 Ar 13.4492 1.08029 0.753812 0.572847 -0.365511 1.10467 -16.4456 2.83675 -5.358
34 1 Ar 14.2169 1.05915 16.6822 0.873941 -0.662426 0.27925 -5.73283 -10.6159 3.9686
35 1 Ar 14.1563 0.310974 0.864704 -0.380549 0.720097 -1.26795 -3.93765 -3.40044 -3.90791
37 1 Ar 14.8037 0.148011 0.0149307 0.0532157 -0.728874 0.40413 7.32363 -1.32163 -8.86141
40 1 Ar 15.0911 0.941168 0.664441 -0.633528 0.58057 -0.839464 -7.6568 -0.523809 6.86096
38 1 Ar 15.938 0.993947 16.7697 -0.472807 -0.358635 -1.41482 -6.90687 2.6984 -10.399
39 1 Ar 15.8531 0.270106 0.859337 -0.205674 -1.15705 0.876817 -14.3252 -12.5017 12.8262
41 1 Ar 16.4911 2.05583 16.7198 0.613841 -0.997622 -0.165129 2.21031 -23.3273 -24.8059
42 1 Ar 0.787523 2.92123 16.7698 1.65507 -0.702333 -1.72475 -3.28644 8.53595 6.03252
43 1 Ar 0.519816 1.78278 0.412927 0.0746519 -0.405557 0.424125 21.8535 -8.21473 17.3128
44 1 Ar 16.5778 2.63622 0.784857 -0.690683 0.75234 0.742535 11.1156 2.4184 -9.73204
45 1 Ar 1.74159 1.37861 16.4139 -1.1793 0.570029 -0.167493 -3.71523 2.71648 2.95346
46 1 Ar 2.3541 3.25754 0.512064 0.386745 0.407989 -0.264899 -1.07227 -8.27577 -18.2697
47 1 Ar 2.50654 2.05306 0.816886 0.764773 -0.228052 0.286358 9.21772 -36.0452 -11.0554
48 1 Ar 1.60303 2.22524 0.351064 0.0332035 -0.114728 -0.0407086 -11.5851 5.77683 -12.852
49 1 Ar 2.84894 2.17807 16.613 -1.7291 -0.098951 -0.976992 1.2309 3.00184 -5.25536
50 1 Ar 4.28395 2.61135 16.6851 -0.152193 -0.646132 1.28346 0.0481493 8.62028 14.4882
51 1 Ar 4.49265 2.56507 0.994484 -2.37213 1.1139 1.4763 7.83764 12.9742 7.78402
52 1 Ar 3.46288 2.54165 0.718625 -0.448418 0.108764 1.01207 -1.83117 2.21061 -1.2156
53 1 Ar 5.05585 1.86355 0.132585 -0.587766 0.279878 1.2451 4.45355 3.18903 0.904903
54 1 Ar 6.16379 2.49713 16.724 -1.08425 -1.77469 -0.0460259 4.62311 -2.24669 0.248474
55 1 Ar 6.09152 1.90272 0.85081 -0.781849 0.203231 -0.144062 -3.99108 -15.8631 -11.978
56 1 Ar 5.28918 3.10848 0.581647 0.535308 1.52532 -0.300033 4.10366 -1.54182 14.8674
57 1 Ar 6.7683 1.56137 0.0902929 0.544082 -0.58162 0.425086 3.12092 1.14774 -4.94109
58 1 Ar 7.75545 2.05354 16.5728 0.182106 0.565741 0.0354927 -7.58455 -2.82852 6.41617
59 1 Ar 7.57224 1.56492 0.835428 0.473498 1.46347 -0.85987 -12.3378 -3.39462 10.3364
60 1 Ar 7.41848 2.6577 0.665122 -1.04144 -0.409371 -0.951794 -2.60344 -7.05872 5.4122
61 1 Ar 8.74355 1.43175 0.119531 -0.0198601 1.91294 -0.309704 -3.85675 -1.45966 -2.39341
64 1 Ar 8.41596 2.12317 0.967125 1.98854 -0.347755 -0.588732 22.8893 16.7212 -17.6474
62 1 Ar 9.32316 2.39322 0.295419 -0.470864 -0.855995 -0.403504 -31.1204 2.64012 4.00607
63 1 Ar 9.3102 1.43041 1.03992 -0.266624 -1.23202 0.262318 -11.6594 4.91771 -10.9092
65 1 Ar 9.89234 1.59948 16.773 0.880021 -0.256082 0.399604 0.855277 -21.1203 -18.5316
68 1 Ar 10.2627 2.24358 0.681102 2.38705 -1.91208 0.296503 9.40572 17.6178 12.583
66 1 Ar 10.8402 2.59467 16.6383 1.06448 0.682096 -0.293761 -10.0899 -6.80143 -5.5469
67 1 Ar 11.109 1.67347 0.87638 -0.859342 -0.733284 0.105007 -7.5517 0.791127 2.2824
69 1 Ar 11.6826 1.7136 16.6097 0.737605 -0.86048 -0.672661 -16.9768 9.93078 24.9653
72 1 Ar 11.5538 2.55788 0.555143 -0.127535 2.11302 0.255599 21.532 7.99754 14.5493
70 1 Ar 12.5772 2.65048 16.7096 0.974807 3.20503 0.964408 -11.9132 7.98906 9.99637
71 1 Ar 12.5258 1.85406 0.901011 -1.0716 0.118293 -0.135873 -5.26538 -1.55615 -3.54292
73 1 Ar 13.1469 1.82418 16.7293 0.676216 -0.82066 -0.139378 -2.20611 -25.1307 11.5299
76 1 Ar 13.3833 2.50854 0.827614 1.14271 1.60174 -0.720693 2.757 2.76394 -40.504
74 1 Ar 14.5346 2.82341 0.167205 1.21308 -1.15517 0.394086 -23.177 -34.8381 6.79333
75 1 Ar 14.326 1.69077 0.744384 0.321826 1.37623 -1.24002 -6.7477 -6.39489 -30.2355
77 1 Ar 15.1754 1.73913 16.7887 0.207707 0.34932 -0.874468 -12.0153 10.0173 3.80588
80 1 Ar 14.6761 2.42961 1.28624 0.0346915 0.431371 1.35023 -0.672147 -2.29906 2.51741
78 1 Ar 15.7391 2.68213 0.0149292 1.0785 -0.454224 1.87375 -5.84214 23.4847 20.34
79 1 Ar 15.8668 1.76474 0.957617 -0.264492 0.737765 -2.0155 -8.01714 1.181 -21.1623
81 1 Ar 16.5882 3.65352 16.7698 1.27419 -1.63657 0.438085 0.907181 -4.98954 4.88545
82 1 Ar 0.619106 4.35732 0.00959794 1.72338 0.118084 0.570346 3.60361 -3.30326 -5.09828
83 1 Ar 0.528634 3.50388 0.823894 2.13498 -0.440821 -0.164164 9.35904 5.67582 -4.77983
84 1 Ar 16.4945 4.36809 0.779815 1.56669 -1.0843 0.0864436 -1.90896 4.84534 -3.02456
85 1 Ar 1.57234 3.7084 16.6448 -0.670039 1.7527 -0.610547 -3.03022 -5.62323 -15.5656
86 1 Ar 2.66442 4.11651 16.7923 0.860705 -0.458579 -1.12314 -5.48522 12.2645 3.47208
87 1 Ar 3.14758 3.85843 1.12692 1.90568 0.635275 0.0711343 -2.7582 -17.6091 1.66976
88 1 Ar 1.75316 4.07989 0.777681 0.0566344 -0.62796 0.190667 -2.71933 8.12418 14.7268
89 1 Ar 3.43196 3.31307 16.5782 1.00068 0.420565 0.882358 -2.54314 -6.11906 4.68622
90 1 Ar 4.60994 4.14362 0.0490434 0.826068 0.272883 -1.44303 -11.9102 -30.9606 -32.779
91 1 Ar 4.45343 3.65728 1.06374 -0.185431 -0.807797 0.559924 -3.421 6.61833 1.18982
92 1 Ar 3.64812 4.29923 0.309035 0.382028 -0.350295 -0.682771 -7.25833 10.2871 6.10471
93 1 Ar 5.52183 3.26879 16.4228 1.4017 0.844841 -2.13655 -22.5923 25.5471 2.65061
94 1 Ar 6.17721 3.88459 0.196498 0.210757 0.407535 -0.875054 -47.4624 38.519 -3.43075
95 1 Ar 6.41277 3.37227 1.05215 1.84637 2.24066 -0.249816 8.95126 -15.0158 3.17503
96 1 Ar 5.22909 4.53633 0.684439 0.562301 0.360659 -0.121139 28.1066 10.0276 19.7689
97 1 Ar 6.99633 3.40261 0.0634865 -1.18907 0.783574 0.254124 31.8124 -29.7605 -15.5263
98 1 Ar 8.15722 3.93245 0.557874 1.41169 -0.315365 0.401081 -1.07972 28.0337 -20.1014
99 1 Ar 8.15607 3.21447 1.23445 0.70032 -1.35963 0.0144919 1.05956 -21.2921 12.0311
100 1 Ar 7.11519 4.22168 0.674592 0.208869 0.774818 -0.165727 -0.507677 16.1553 11.2393
101 1 Ar 8.3522 2.97569 0.178566 0.239155 0.0944436 0.00423248 -1.66742 -12.1741 1.08866
104 1 Ar 8.89654 4.49386 1.11237 0.727277 1.21728 1.50008 7.43986 7.50079 -2.69716
102 1 Ar 9.22113 4.2218 0.00675412 0.78803 0.919199 0.127658 -1.64792 2.54238 0.894008
103 1 Ar 9.19064 3.47117 0.848196 0.52733 2.25201 -0.0747156 -10.7072 20.9063 -27.7725
105 1 Ar 9.927 3.21588 0.19943 0.00472564 -0.396329 -0.680464 9.56974 -1.54668 -24.0103
108 1 Ar 10.1228 4.13719 0.675444 0.288431 0.304674 0.709407 -13.0737 18.5666 -2.28127
106 1 Ar 10.799 4.29667 16.5336 0.73349 0.472804 0.814049 14.518 4.07713 16.285
107 1 Ar 10.8475 3.4079 0.635614 -2.58582 -1.02425 0.805057 3.71892 -12.3249 -7.00055
109 1 Ar 11.5586 3.44276 16.6466 0.597969 -0.565436 -1.20707 -11.1442 0.814533 2.6036
112 1 Ar 11.3975 4.31391 0.682985 -0.0641459 -1.36309 0.687586 -4.6251 0.856781 -13.7109
110 1 Ar 12.3144 4.25959 0.00565203 0.628693 0.90186 0.647048 4.36697 -11.4967 16.201
111 1 Ar 12.2192 3.47932 0.712602 0.314331 0.856674 2.49683 0.991901 -29.0931 -5.94099
113 1 Ar 13.3213 3.67692 0.0592608 0.21973 0.952245 0.200001 -25.7921 28.6714 52.7345
116 1 Ar 13.5014 4.34737 0.935885 2.10143 -0.559134 0.192585 -5.5919 -13.4603 5.69164
114 1 Ar 14.2745 4.2796 16.7363 1.13287 0.100292 0.36644 -19.8948 -7.18059 -37.8823
115 1 Ar 14.0826 3.3647 0.996304 0.0756753 -0.596706 0.639752 23.9283 3.45456 -8.31824
117 1 Ar 15.0893 3.61451 0.127587 1.63863 -1.47232 0.225981 17.6799 31.6177 -11.0224
120 1 Ar 14.6483 4.304 0.829771 -0.836492 1.34795 0.249919 17.9537 4.98002 41.1241
118 1 Ar 15.5511 4.66082 0.154782 -1.11247 0.0768579 -0.826835 -1.25718 -9.1092 4.73663
119 1 Ar 15.8223 3.40351 0.812454 0.246929 0.986234 0.381437 -2.35162 9.62056 0.275762
121 1 Ar 16.4331 4.89488 16.4066 -0.186374 -0.195189 2.4226 5.00529 12.727 11.1935
122 1 Ar 0.646331 5.4028 0.239087 1.12838 -0.0100841 -0.411954 7.98851 -5.64145 6.6437
123 1 Ar 0.776378 4.60505 1.05337 -0.713571 -0.115851 -0.310446 -1.23307 18.4703 -21.5614
124 1 Ar 16.2277 5.58165 0.753247 -0.714801 0.0368221 0.735253 1.18676 -0.547131 -5.54302
125 1 Ar 1.6773 4.91743 0.146619 -1.71388 1.04695 0.186072 -1.89181 0.471887 -8.02476
126 1 Ar 2.48306 5.63878 16.6732 -0.489016 -0.0109868 -1.8561 -4.50641 -14.1674 14.2127
127 1 Ar 2.58366 4.74867 0.867883 0.074177 1.02676 -0.787949 -1.71788 3.90888 -2.89363
128 1 Ar 1.72348 5.60325 0.994483 -0.159461 1.56956 0.780005 -17.4276 -23.8111 -35.6651
129 1 Ar 3.48457 5.24297 16.5031 0.660232 -0.0217761 0.369691 9.41551 -11.6953 10.759
130 1 Ar 4.47182 5.96427 16.4431 -0.17724 0.330043 -0.268931 -4.06606 1.03899 -4.87401
131 1 Ar 4.30923 5.22741 0.490238 -0.309009 -0.268441 0.570448 -0.313209 -3.47575 2.56018
132 1 Ar 3.2915 5.62321 0.741908 -0.695133 0.762123 0.568742 2.68077 -7.79573 2.5068
133 1 Ar 5.05985 5.02071 16.5191 -1.2503 0.801378 0.861631 6.40342 12.7447 -0.199011
134 1 Ar 6.25379 6.00761 0.0974563 -1.20938 0.492417 -0.331209 9.6589 25.5631 -5.73811
135 1 Ar 6.16882 5.1905 0.694548 1.58146 0.608568 0.270504 -0.928463 -3.34492 6.32413
136 1 Ar 5.27661 5.8655 0.415963 0.33189 0.730047 0.267084 -8.92774 -4.48683 5.58137
137 1 Ar 7.13328 5.23087 0.111034 -1.14991 -0.3829 0.378161 -8.7799 -1.65487 4.39799
138 1 Ar 7.74591 6.09408 16.7297 -0.493205 -0.597972 -0.39044 -10.1008 -16.6348 7.36848
139 1 Ar 7.95307 4.98799 1.08 -0.0718192 -0.673893 0.21189 4.8805 6.94628 40.1156
140 1 Ar 6.95704 6.24203 0.87183 0.51138 0.184505 -0.1362 2.70699 11.0733 -3.20437
141 1 Ar 8.16401 4.97101 0.145447 -0.756261 -0.284186 0.0329109 12.9648 -3.70302 -52.8913
144 1 Ar 8.47696 6.10281 0.941809 -1.69876 -0.120543 1.12388 -7.27218 -21.5018 1.68654
142 1 Ar 9.45018 5.98382 16.4062 0.15152 -0.25928 -1.72484 3.3153 12.5497 -14.1724
143 1 Ar 9.07507 5.45885 0.381684 -0.762595 -0.689023 0.175526 -1.70331 -18.8834 11.0954
145 1 Ar 10.2791 5.25375 16.5211 0.942723 1.10088 -0.0122871 -8.8346 -9.20172 -1.91803
148 1 Ar 10.0135 5.92947 0.566542 -1.37435 -0.293117 -0.100615 7.02024 21.5002 -8.62111
146 1 Ar 10.7465 6.16143 16.4409 0.13567 -0.938806 0.961965 8.06382 5.33483 7.9034
147 1 Ar 10.7015 5.14257 0.712839 0.686022 -0.65665 1.30233 5.4102 -5.72732 -0.766208
149 1 Ar 11.6563 5.09141 16.5619 -0.414276 -0.852331 0.805022 -42.6784 11.641 6.86989
152 1 Ar 11.5016 6.13677 0.446053 1.88876 0.46547 0.344106 13.0942 -26.2991 5.90128
150 1 Ar 12.5431 5.7999 16.4292 -1.31673 -0.367324 -1.02384 -18.6836 -2.87195 17.1432
151 1 Ar 12.236 5.19977 0.591467 0.253098 0.625013 0.524607 7.61722 5.42292 11.6755
153 1 Ar 13.3928 5.00654 0.1252 0.372217 -2.23159 0.75077 -12.9302 1.66534 1.51791
156 1 Ar 14.1521 6.10603 1.54724 -0.731622 0.747854 -0.537969 2.27117 18.5207 8.83249
154 1 Ar 13.9416 5.96604 0.155033 0.041344 0.475181 1.31846 -2.04748 0.939959 0.354949
155 1 Ar 14.0577 5.14247 1.33098 1.07532 0.139255 0.58788 14.7233 -23.8589 -3.06
157 1 Ar 14.8649 5.42429 16.68 0.785039 -0.641907 -1.60302 7.26832 4.34801 1.89587
160 1 Ar 14.8922 6.11472 0.746666 0.440804 0.776354 0.457543 6.81775 -9.01925 -0.250729
158 1 Ar 15.7215 6.27868 16.7161 0.248735 -0.11268 -0.848316 -1.14678 -6.57013 -4.37377
159 1 Ar 15.3503 5.07388 1.20001 -1.09062 -0.279623 -0.36757 -22.4805 41.2258 -27.7663
161 1 Ar 0.0603809 6.21014 16.7923 0.669889 0.91581 -0.605585 -8.63909 14.3408 -0.185179
162 1 Ar 0.662848 7.20392 16.7932 0.61335 1.9571 -0.141573 9.47016 -2.78424 -8.85759
163 1 Ar 0.895249 6.35019 0.86799 0.141218 0.288933 -0.893388 15.0613 14.6718 -31.6656
164 1 Ar 0.00524193 7.3327 0.793685 0.856054 0.397363 2.1722 -3.37329 5.89487 -0.131415
165 1 Ar 1.69206 6.58704 16.7664 -1.5659 -1.0125 0.224048 -0.155911 -14.1383 8.07737
166 1 Ar 2.54027 7.24853 0.334018 -1.26074 0.177534 2.06183 -9.87383 15.536 -13.3179
167 1 Ar 2.54908 6.36898 0.864341 -0.227856 -1.51342 0.138411 -9.5282 -8.62798 3.93466
168 1 Ar 1.62678 7.22248 0.928974 -0.125093 -0.941706 1.38291 -2.78802 0.682642 -10.4823
169 1 Ar 3.14426 6.37733 16.7822 0.544331 -0.681416 -1.01068 13.8174 13.065 -4.67758
170 1 Ar 4.42365 7.69531 0.36198 0.153956 0.400432 0.548236 5.83915 7.0846 -2.7334
171 1 Ar 4.12847 6.29655 0.653187 -0.475462 0.987544 0.144725 0.569169 4.83278 -1.77765
172 1 Ar 3.52146 7.23117 0.684875 -0.221168 0.91707 -0.252129 -2.39123 -17.5621 8.87466
173 1 Ar 5.20387 6.8309 16.6309 -0.0125347 -0.328228 -0.653383 -4.60428 -24.462 11.0029
174 1 Ar 6.16703 7.59315 16.6051 -0.211876 0.179655 -2.16482 -10.8294 0.563484 -1.89529
175 1 Ar 5.72613 6.86811 0.773291 0.528966 0.576561 0.833156 12.09 -30.8457 -7.0512
176 1 Ar 5.50903 7.80008 0.684545 0.0105061 -0.110182 -0.11756 -8.38137 45.4831 -4.65324
177 1 Ar 6.95893 6.79907 16.5612 -0.194791 0.428668 0.612555 -14.8484 -8.23933 23.3483
178 1 Ar 7.57092 7.70857 16.6387 -1.40067 1.41127 0.890049 14.3232 3.26889 13.3505
179 1 Ar 7.87257 6.93381 0.89561 0.516887 -0.256453 -2.08245 -13.4376 5.60033 -14.8481
180 1 Ar 6.78444 7.54418 0.61951 0.517689 -1.01943 -0.0594146 25.9923 -44.5678 -14.1837
181 1 Ar 8.41693 6.83864 16.6296 1.04612 -0.100198 -0.791451 12.9452 6.19496 5.61212
184 1 Ar 8.62725 7.67358 0.786329 -0.0375823 -0.734944 -0.941952 -0.120887 9.58707 3.40154
182 1 Ar 9.21808 7.59189 16.6609 -0.818091 -0.822977 -0.37826 7.86373 21.101 30.2717
183 1 Ar 9.1989 6.78395 0.657979 -1.54827 -1.65666 0.766942 14.3971 2.09675 -10.3078
185 1 Ar 10.0926 6.97264 16.7275 -0.49972 -0.0713776 1.43488 -13.9222 -13.7273 -11.4112
188 1 Ar 10.1539 7.75638 0.60015 0.0418658 -0.432641 -0.735335 -15.3735 12.3183 9.21563
186 1 Ar 11.0169 7.98857 0.0832381 0.769757 -0.729787 1.29066 -11.6773 -10.2569 -25.0341
187 1 Ar 10.9598 6.98224 0.462848 -1.08405 0.51842 -1.12315 13.8575 17.9368 1.18126
189 1 Ar 11.6392 6.81494 16.4406 -1.34322 1.28309 -0.853884 7.81054 1.39723 -4.42085
192 1 Ar 11.8057 8.13061 0.699966 0.558057 -0.474284 0.167144 -6.57507 3.32535 -3.74417
190 1 Ar 11.979 7.81004 16.5385 1.49302 0.755547 0.314595 9.21395 -3.14644 -16.2128
191 1 Ar 12.0434 7.1148 0.805744 -0.470622 1.54673 0.616366 -1.8546 -20.9294 -14.4393
193 1 Ar 13.1908 6.77484 16.5699 -0.798641 0.594783 -0.215383 -3.13955 -1.54074 -0.720536
196 1 Ar 13.3039 7.46292 0.66083 -0.429431 1.17199 0.000240141 -21.0179 1.16869 22.0517
194 1 Ar 14.181 8.11298 0.409127 -0.24213 0.526925 1.22192 8.60203 -10.995 7.14271
195 1 Ar 14.1238 6.91442 0.7314 -0.324769 0.0117704 0.177895 7.52149 -28.1841 -3.61375
197 1 Ar 15.0543 7.10252 0.386021 0.491233 1.53977 0.954957 15.9285 16.0984 -8.41643
200 1 Ar 14.9061 6.82521 1.57739 0.909935 -0.180809 -0.565263 0.670414 31.6721 -41.4464
198 1 Ar 16.0328 7.41226 16.7379 -1.95583 -1.43435 -1.03929 3.01261 0.615149 11.601
199 1 Ar 15.9468 6.7069 0.85608 -0.793026 0.136209 0.00563723 -23.5606 -0.669736 -8.25216
201 1 Ar 0.113095 8.22388 16.7713 0.25587 -0.583899 -1.62621 -6.10609 -15.9879 10.6016
203 1 Ar 0.881336 7.98235 0.78911 -0.575573 0.924507 -1.06924 -2.05127 11.6789 -0.579954
205 1 Ar 1.84952 8.31988 0.291512 -1.41117 -0.523873 0.655132 2.39644 -20.5142 -10.8135
207 1 Ar 2.63663 8.28962 1.08995 0.960589 -0.640498 1.4383 -22.2159 3.21563 25.7207
209 1 Ar 3.21901 8.13104 0.310668 -1.35392 -0.098474 0.531396 14.1383 6.59282 -31.84
211 1 Ar 4.33199 9.07787 1.61934 -1.23246 0.919675 0.916158 -19.5259 -0.862568 -8.67737
213 1 Ar 5.22471 7.70825 16.1766 0.997226 -2.57643 1.31025 3.82021 18.8094 -12.89
215 1 Ar 6.56518 8.44666 0.900771 0.648015 0.154886 -0.95315 -9.24654 45.9649 6.47541
217 1 Ar 6.77467 8.52401 16.3444 -0.0362948 0.0377545 -0.0965206 -28.6902 -7.40177 2.00519
219 1 Ar 7.89312 8.52362 1.00531 -0.134343 1.56154 0.450601 -14.0318 -3.93104 -9.64616
221 1 Ar 8.58648 8.42508 16.5092 0.00566894 -1.44719 -0.444288 -5.19445 20.6478 26.017
223 1 Ar 9.2937 8.60875 0.669927 0.646575 -1.77839 1.57109 -11.1424 -14.1119 -3.81962
225 1 Ar 10.0949 8.47005 16.4754 -0.842693 0.466814 -0.304488 6.41621 -0.632869 17.7166
227 1 Ar 10.9177 8.72877 0.759825 0.326531 1.70547 0.616139 -5.89033 17.0356 10.4328
229 1 Ar 11.7217 8.8497 16.7198 -1.94678 -0.194042 2.00723 0.406296 -0.920826 18.4119
231 1 Ar 13.0018 8.66551 0.74547 -0.301926 0.275674 1.5333 -12.4755 -25.1825 0.138089
233 1 Ar 13.7378 8.95928 0.0175645 0.243908 0.653271 0.799206 -7.53177 6.85877 -11.5414
235 1 Ar 14.2571 8.78838 1.29428 -0.0888236 0.956973 -0.741191 -10.4989 -1.20543 7.35972
237 1 Ar 15.3197 8.28159 0.0512259 -0.640029 -1.21864 0.260221 -1.80443 -3.18386 -4.57666
239 1 Ar 16.0027 8.13261 0.830821 0.65047 1.39966 -1.55396 22.6901 6.57827 -16.1238
202 1 Ar 0.906329 8.91449 0.0868507 -0.428116 -0.648285 0.143174 16.0372 0.237002 -3.84786
204 1 Ar 0.155548 8.9272 0.79513 -1.71914 -0.142107 -0.227424 -9.77029 5.86444 9.65258
241 1 Ar 0.202954 9.71879 16.7495 -0.244977 0.459271 0.391433 -15.2836 -4.39345 23.1031
243 1 Ar 0.728531 9.92341 0.851679 1.80861 -0.607996 -0.162833 8.19511 -10.2156 10.3586
206 1 Ar 2.75048 9.11638 0.09842 0.390108 0.404682 -0.0311326 -1.78701 2.22006 8.24252
208 1 Ar 1.80643 9.1479 0.87497 -1.01353 -0.422249 -0.260417 8.05808 -25.605 -34.8958
245 1 Ar 2.03269 9.98994 0.0198683 1.22584 -0.303824 -0.413678 -0.99893 0.854648 15.4737
247 1 Ar 2.72909 9.9178 1.06803 -0.233807 -1.11083 0.792321 -10.006 2.65939 -3.14737
210 1 Ar 3.92321 8.87649 16.7588 -0.311225 -1.60038 0.736917 -5.0861 -11.3363 14.8168
212 1 Ar 3.40452 9.05031 0.980615 0.00650044 1.71888 -0.630052 -3.9053 9.51405 -1.32279
249 1 Ar 3.28146 10.2506 0.205258 -0.56423 0.14794 0.682537 2.21391 -6.53805 3.26239
251 1 Ar 4.21565 9.6502 0.622349 0.828036 -0.500744 0.305021 -0.0403727 11.2125 2.87812
214 1 Ar 5.60686 8.69442 0.0567459 -0.152168 -0.00482685 0.372156 19.3391 -12.8481 22.2712
216 1 Ar 4.80395 8.79494 0.770043 -0.00457293 1.85226 -0.118946 6.56631 -8.54914 -24.2431
253 1 Ar 5.52759 9.62416 0.905119 0.248368 0.228446 -1.10182 -0.680427 13.5438 -29.619
255 1 Ar 6.71078 10.5489 0.894873 0.000489465 0.588541 -1.06863 -10.296 -12.2994 9.73064
218 1 Ar 7.59364 8.99066 16.6713 0.339159 -0.386862 0.137028 11.3949 3.75769 -9.26144
220 1 Ar 7.17439 9.41732 0.745965 2.41894 0.344748 -1.35552 -8.4271 -4.60277 4.36313
257 1 Ar 6.28582 9.64001 16.6413 -0.307622 -0.732526 -0.0799475 -15.4726 -10.0826 -0.952284
259 1 Ar 7.72629 10.3486 0.950701 -2.50539 -0.0286892 0.70503 9.36369 -27.5756 -30.0784
224 1 Ar 8.33447 9.33822 0.47282 -1.45601 -0.0706941 -0.932196 8.87025 -1.07725 12.1971
261 1 Ar 8.39181 10.0975 16.4874 -2.30526 -0.140319 -0.0241535 -7.32697 -33.1489 -8.44973
222 1 Ar 9.23291 9.31294 16.5551 1.17813 1.4797 0.124713 -27.2622 -2.79621 28.9771
228 1 Ar 10.0153 9.33774 0.758842 -0.551913 0.374254 -1.14775 29.8829 8.10877 -16.0898
263 1 Ar 8.9574 10.163 0.511974 -0.786553 0.249587 1.34804 33.8585 -5.13518 19.7278
265 1 Ar 9.96853 10.1547 16.7807 -0.322258 0.422109 -0.0708176 -34.2507 -5.78418 19.9762
226 1 Ar 10.7994 9.31347 16.5848 0.0774841 -0.0335294 -0.382468 -20.0476 -0.976302 26.8433
232 1 Ar 12.0312 9.05406 1.05475 0.393741 1.06491 -1.23587 1.9528 22.7022 1.54792
267 1 Ar 11.0536 9.87516 0.882105 0.0829539 -0.567696 0.0601062 -4.53838 2.29207 1.15132
269 1 Ar 11.8238 9.90264 0.147391 0.423231 0.156598 1.27635 -28.6809 9.7051 10.8341
230 1 Ar 12.7181 9.49901 16.7608 0.968086 -1.39629 0.192859 7.12566 -38.9571 1.10466
236 1 Ar 13.4192 9.53753 0.979876 -0.58818 -0.616574 -0.334398 -4.89504 12.4749 13.5295
271 1 Ar 12.5591 10.1436 0.943532 -0.5497 0.372131 -1.01162 -8.51793 0.194815 -0.536356
273 1 Ar 13.3234 10.2817 0.0595446 -0.841784 0.650107 -1.04942 21.3608 -6.56591 4.21091
234 1 Ar 14.2675 9.7456 0.470477 0.134908 0.0826111 2.09926 14.1606 17.2194 -14.4852
240 1 Ar 15.0505 9.08549 0.677471 1.6513 0.703963 -0.132711 15.1789 3.0893 -0.05651
275 1 Ar 15.0014 10.5401 1.0063 1.54362 0.203079 -2.18918 -2.89496 4.6614 -14.359
277 1 Ar 15.3187 10.0523 0.0596382 0.311639 0.0865412 0.217143 -8.45331 -11.1052 4.76296
238 1 Ar 16.2225 9.01515 0.0612857 1.33426 -0.386932 0.217157 -25.321 0.811088 -5.66204
279 1 Ar 16.1236 9.8277 0.8243 0.0980028 0.0976215 -0.51083 -0.535271 6.74268 -8.39122
242 1 Ar 1.10858 10.5455 0.0944644 0.977012 0.312841 -0.176806 -4.3077 23.4465 12.2179
244 1 Ar 0.0543982 10.7598 0.7391 -0.385754 0.396905 0.679636 22.7526 -1.40885 -12.7076
281 1 Ar 0.371926 11.6268 16.7825 -0.637986 1.51447 -1.17229 -16.7274 1.73274 5.19049
283 1 Ar 0.884201 12.0258 0.944134 -0.184225 0.592546 -0.427194 -4.41277 -22.4204 2.21564
246 1 Ar 2.3657 11.0023 0.181171 -0.201934 0.380065 -2.16621 -7.78852 -6.71791 -5.59143
248 1 Ar 1.64984 10.8972 1.05367 0.085354 0.900651 -0.114855 -22.9638 -5.30307 -17.1473
285 1 Ar 1.39791 11.5535 0.10645 -0.257062 1.45531 0.192033 20.4207 9.99235 14.6725
287 1 Ar 2.29088 11.8018 0.922003 0.583803 -1.08297 1.15209 0.349566 2.51459 -8.00888
250 1 Ar 4.42393 10.6899 0.543454 0.421452 1.14568 0.730121 5.58088 -65.4502 -35.363
252 1 Ar 3.17697 11.1747 0.817739 0.0124872 -2.32881 -0.649507 10.3327 -24.1376 -4.80611
289 1 Ar 3.03261 11.8299 0.0123126 -0.219666 0.22415 -0.809911 -12.1529 8.80113 -12.3416
291 1 Ar 3.90963 11.9915 0.554024 -0.152156 0.367957 -0.765278 -11.9017 7.44728 11.5993
254 1 Ar 5.43757 10.7884 16.7288 1.26703 -0.592876 0.898106 12.5816 0.648398 15.6903
256 1 Ar 5.42068 10.6914 1.04293 0.549023 -0.219568 0.00346954 2.4891 8.53585 1.17771
293 1 Ar 4.69172 11.587 0.0864057 1.31406 -1.53929 -1.13615 49.0019 11.7447 2.16038
295 1 Ar 6.30584 11.9622 1.57303 0.563259 1.3418 1.49301 -13.3235 -15.4676 13.934
258 1 Ar 7.34024 11.0939 0.22357 -0.210083 -0.808498 1.50645 3.82716 8.29011 -13.339
260 1 Ar 7.45918 10.7956 1.78252 2.0193 -1.17928 -1.33153 -19.1238 7.0697 21.9362
297 1 Ar 6.21702 11.368 0.494041 -0.339365 -0.30002 0.130886 2.10837 8.86398 -6.24844
299 1 Ar 7.53371 11.7065 1.04307 -0.589546 0.201017 0.453685 -1.68058 1.82824 7.02406
264 1 Ar 8.42611 11.0147 0.609948 1.1454 0.953956 -1.07632 -8.85298 13.7322 11.3874
301 1 Ar 8.27657 11.9631 0.233787 -1.70007 0.176363 1.11631 -6.22011 7.8925 -5.81529
262 1 Ar 9.16929 11.1602 16.7004 -0.669441 0.191841 0.468099 7.62223 0.785033 -6.80025
268 1 Ar 9.95252 10.9573 0.763079 -0.640516 -0.894907 -2.41032 -14.0192 -4.15404 6.00926
303 1 Ar 9.44753 11.865 1.08347 0.146422 0.981683 -0.758657 -22.7847 4.37479 -16.9617
305 1 Ar 10.0392 11.9375 0.221602 0.628848 -0.010804 0.182326 6.7098 -5.96331 -4.20929
266 1 Ar 10.8892 11.0895 0.375943 -1.04326 -0.0546586 0.505935 -8.52512 1.52623 -16.8434
272 1 Ar 11.6864 11.0558 0.990121 -0.977755 -0.544053 -1.0901 19.5561 -3.44329 15.9195
307 1 Ar 10.973 11.9757 1.08776 0.23133 -0.132773 -1.01768 -1.31955 -6.31002 -11.4196
309 1 Ar 11.7508 11.7736 0.175331 0.0348277 0.550744 2.04884 -4.21035 14.3092 16.853
270 1 Ar 12.5243 10.9342 0.211357 -0.365052 -0.511101 -0.668041 -7.65935 3.37064 1.15385
276 1 Ar 13.5083 10.827 0.901403 0.589157 0.208639 0.00654189 2.66786 8.0871 15.001
311 1 Ar 12.558 11.8307 0.867519 0.354574 0.307763 -1.83502 5.56004 -20.6039 3.43136
313 1 Ar 13.7213 11.6021 0.0630095 0.744065 1.52421 -0.622118 -32.6149 27.8071 -2.50838
274 1 Ar 14.333 10.8663 0.149248 0.42821 -0.935855 0.621117 22.774 -57.7269 -14.9409
280 1 Ar 15.2796 11.2946 0.284775 0.465768 0.594277 -1.12238 7.38743 -4.35337 3.62143
315 1 Ar 14.4386 11.5336 0.906779 -0.669788 0.681411 -0.548531 -1.38234 15.2861 20.9942
317 1 Ar 15.5817 12.2534 0.0997734 -0.358093 0.907735 0.444862 -6.06102 -11.1019 16.0743
278 1 Ar 16.1391 10.7135 0.00466495 -0.659412 -0.937643 -1.87095 5.64858 -12.1132 6.60732
319 1 Ar 16.3369 11.9304 0.780421 -0.188418 -0.206614 -1.28803 -5.5065 -7.44794 -7.17099
282 1 Ar 0.894912 12.7423 0.132136 -0.803022 -0.547052 -1.75574 -9.13102 -3.51306 -7.75644
284 1 Ar 0.134121 12.743 1.09841 0.160474 -1.46279 0.284423 35.7053 -10.5567 -1.39015
321 1 Ar 0.174235 13.7908 0.134881 -0.100189 -1.29073 1.04194 -17.9029 -31.3378 -10.0485
323 1 Ar 0.851054 13.6287 1.01766 -1.19215 -0.503529 0.360601 1.81814 -16.5064 -14.6225
286 1 Ar 2.0862 12.4344 0.102301 -1.0619 -1.42825 0.392159 -1.51218 7.29364 -0.0970146
288 1 Ar 1.52578 12.8147 0.981689 -0.31666 -0.72172 -1.07984 18.8244 2.998 -0.675857
325 1 Ar 1.26277 13.7323 0.0411648 0.12769 -0.292866 -0.0423201 -23.7043 -34.1951 -13.3131
327 1 Ar 2.31499 13.5589 0.586662 -0.597313 0.20934 1.12873 1.90238 -10.6518 0.0943849
290 1 Ar 3.84865 12.405 16.3396 1.47705 0.345583 0.12955 -1.38829 1.74816 1.18294
292 1 Ar 3.00497 12.6048 0.768439 -1.30684 -0.895468 0.224463 -65.6031 5.16312 -27.0165
329 1 Ar 3.19 13.6232 16.7534 -0.596123 0.467123 -0.873265 8.59583 -5.41039 -6.97486
331 1 Ar 3.85482 13.0172 0.664494 0.534999 -0.915958 -0.140257 39.0888 37.6559 -4.63406
294 1 Ar 5.81687 12.4397 0.0992538 3.07726 -0.0568169 0.414469 13.1727 -7.97469 8.05776
296 1 Ar 4.82878 12.6826 0.590462 0.00100306 -0.850945 0.876151 -0.599138 0.978252 -12.5862
333 1 Ar 4.39429 13.4136 16.4995 0.29685 -0.560706 0.288094 -1.19633 -4.15212 10.4217
335 1 Ar 5.47112 13.833 0.550739 0.306433 0.0130206 -1.25547 28.24 -0.324621 -21.2071
298 1 Ar 7.11518 12.751 16.7523 -0.500728 1.7923 0.168231 15.2299 -34.7911 -10.2989
300 1 Ar 6.66098 12.5155 0.80496 -0.419495 -0.287142 0.0468625 -6.05439 5.458 12.6942
337 1 Ar 6.61883 13.5756 0.171052 0.282865 0.263407 0.529802 -19.3519 18.0284 24.8267
339 1 Ar 7.73982 12.9146 0.90659 -0.589741 -0.182541 -1.18226 -9.01893 -6.33897 1.67285
304 1 Ar 8.46154 12.1667 1.37941 0.240727 -2.30824 0.524231 -8.72127 -8.73279 -13.7619
341 1 Ar 7.79998 13.4873 16.6551 -0.000121387 0.483716 -0.125812 10.5803 18.0313 -3.60276
302 1 Ar 8.96878 12.7576 0.0318894 -0.0304072 0.733666 0.536259 -17.4678 1.17692 2.93582
308 1 Ar 10.0494 12.7503 1.23528 0.0123074 -0.0819623 0.418501 -1.70359 -5.07918 -4.40763
343 1 Ar 8.53861 13.5416 0.679653 -1.16574 -0.143155 0.254078 8.3365 11.1979 2.59468
345 1 Ar 9.97921 13.7037 0.226426 -1.04127 -0.930745 0.579337 0.402669 11.769 12.2247
306 1 Ar 10.8442 12.7627 0.278118 0.731591 0.200852 -0.502755 3.04924 8.53979 7.96268
312 1 Ar 11.818 12.8691 1.08073 -0.576131 -0.466012 0.943604 -24.9137 -31.5726 -37.3559
347 1 Ar 10.8106 13.4965 1.32228 -1.39383 0.283916 -1.56744 8.89901 8.32709 -3.58101
349 1 Ar 11.8648 13.5984 16.6934 -0.0524283 0.349698 0.455797 21.4615 -17.2318 -17.9419
310 1 Ar 12.4556 12.6439 0.269726 0.740318 -0.423291 -0.338125 -7.80221 6.45807 -19.1285
316 1 Ar 13.5059 12.4805 0.908301 -0.255588 2.05401 0.182321 -18.8789 -14.4128 -2.58158
351 1 Ar 12.731 13.4201 0.887739 -2.20668 0.334034 0.304216 24.1945 -0.0968363 8.53471
353 1 Ar 13.5821 13.3941 0.178805 -0.56117 0.461267 1.30716 -10.1853 7.47641 -10.2535
314 1 Ar 14.3638 12.5006 16.67 0.875619 0.45016 -0.431545 4.87034 19.2167 13.6133
320 1 Ar 15.2323 12.5868 1.02207 0.340083 -1.67569 0.223738 2.02027 -0.752035 10.1981
355 1 Ar 14.2939 13.0951 0.852574 -1.83257 0.24714 0.127176 14.9161 1.64872 -10.9818
357 1 Ar 15.1584 13.3247 0.233148 1.05579 0.753511 0.423101 4.42012 0.910234 -0.876973
318 1 Ar 16.417 12.8492 0.182997 -0.793162 0.953078 -0.837836 4.59546 9.77331 -5.95045
359 1 Ar 16.2493 13.4406 1.12586 -0.643129 -0.419774 -0.266599 -58.6464 1.93454 -10.97
322 1 Ar 0.660709 14.6328 0.253526 -0.845889 1.16995 0.598733 19.4131 32.7352 2.69615
324 1 Ar 16.783 14.261 1.07361 0.92247 0.695814 0.642164 6.27823 17.6938 -18.6649
361 1 Ar 16.5327 15.2042 0.141042 -0.0858791 -0.942963 0.371007 5.79803 11.7132 2.76216
363 1 Ar 0.933126 15.4937 1.03183 -0.853726 1.25714 -0.152014 -5.28005 -26.0638 -10.597