ITEM: TIMESTEP
5000
ITEM: NUMBER OF ATOMS
4000
ITEM: BOX BOUNDS pp pp pp
0.0000000000000000e+00 1.6795961913825074e+01
0.0000000000000000e+00 1.6795961913825074e+01
0.0000000000000000e+00 1.6795961913825074e+01
ITEM: ATOMS id type element x y z vx vy vz fx fy fz
401 1 Ar 1.08761 0.881128 1.6184 2.28471 -0.231758 1.21901 -10.7156 3.67061 -9.90999
798 1 Ar 0.751018 0.118529 0.619282 -1.46662 -0.0145099 1.18808 12.7461 5.94983 14.7507
761 1 Ar 1.77352 0.753716 0.730135 -0.356512 -0.0514351 -0.973428 -3.14513 1.32533 -0.765006
412 1 Ar 2.0454 1.29779 16.5262 -0.302459 -0.447345 -0.793695 -8.5277 -29.197 -7.03897
49 1 Ar 2.85259 0.767811 0.544777 0.727205 0.640059 0.267418 -9.65624 -28.0384 13.2988
3652 1 Ar 1.94181 0.38247 1.99519 -1.05863 -1.13889 -0.471317 0.500898 -8.79794 -17.77
7 1 Ar 2.3966 16.0675 1.7222 0.222896 0.261034 -0.824597 -1.12713 1.19501 -2.57511
3607 1 Ar 2.07733 16.4479 0.70418 -0.462113 1.20252 1.27333 1.19341 2.50356 -3.65257
93 1 Ar 3.28268 16.7658 1.27868 -0.394875 -0.881321 -0.211367 -5.83021 9.74762 -14.5577
410 1 Ar 4.01419 1.59042 0.816739 -0.237965 1.18902 -0.398376 -9.25183 12.9082 5.76493
457 1 Ar 4.50928 0.69569 0.949381 -0.102912 0.656648 -0.198733 0.820286 -19.4514 5.08753
17 1 Ar 4.01671 15.8488 0.853029 -1.52117 -0.981295 0.370318 -19.4548 -3.74829 -6.41484
459 1 Ar 4.58277 16.5503 0.286405 0.200395 -0.0864298 0.618598 4.59489 4.86565 31.5043
414 1 Ar 5.43086 1.17597 0.969234 1.69243 -0.56335 0.961464 -27.4905 19.7098 -7.69736
417 1 Ar 8.30234 0.390405 0.417788 0.0619322 -0.457541 1.18687 8.6686 -4.95566 1.41876
1180 1 Ar 5.45159 16.6295 1.14488 0.175475 0.1549 -1.50405 -4.03444 17.7483 1.08914
59 1 Ar 7.13484 16.6991 0.0209481 1.16389 -0.807629 0.381646 -2.4062 3.5015 21.5478
18 1 Ar 9.27932 16.5557 0.99893 0.21458 -0.00756974 0.235852 -8.18243 -18.9263 -27.4405
379 1 Ar 8.77811 1.19694 1.03234 -0.612783 -0.943989 1.95381 -1.30795 -4.46131 -12.4893
24 1 Ar 9.49243 0.604052 0.258259 2.42406 -0.303422 -1.93646 -0.712276 0.102447 1.99213
64 1 Ar 7.33527 16.7983 1.20177 -0.181984 0.712657 -0.289814 -18.9886 18.0446 6.96336
69 1 Ar 10.2241 1.4112 16.7201 0.305947 0.0141434 -1.98958 -4.12031 -8.86 -1.53694
779 1 Ar 9.79997 0.42892 15.9444 0.583183 0.691239 0.0740401 6.67996 5.75478 2.19932
31 1 Ar 12.6553 1.28753 0.0660177 -0.694796 -0.0734991 0.34756 -10.5887 5.42432 -7.07741
3627 1 Ar 10.7623 0.493187 16.788 -0.450588 0.138831 -0.686441 -0.481681 -7.04077 1.88674
426 1 Ar 11.6629 16.4216 0.707572 -0.915592 1.31064 -0.641618 -30.5026 23.2004 35.1563
33 1 Ar 14.6008 0.493231 0.25966 0.171623 0.462239 -1.32818 1.72175 -0.575208 6.6706
34 1 Ar 13.8108 0.326493 0.991303 0.346098 -0.349204 0.0360034 -3.2549 3.29627 3.98693
473 1 Ar 13.1283 1.2775 1.00162 -0.460618 0.604858 -0.216855 -0.0927404 -3.96758 0.470856
79 1 Ar 14.61 1.03349 1.38167 0.447046 -0.241803 -1.01069 5.85232 -3.66712 0.464637
437 1 Ar 16.2823 1.40865 0.367069 -1.50955 -0.918575 -0.374382 44.8906 -15.9897 25.4772
434 1 Ar 0.436694 1.65216 0.973461 -0.40396 0.882303 -0.699507 8.96296 -10.5295 4.38884
439 1 Ar 16.3559 1.64716 1.56339 0.515936 -1.41119 -0.589993 -2.88968 -1.52399 -0.415404
442 1 Ar 0.98972 2.8564 1.35879 1.55356 0.437194 0.963806 11.9526 6.32813 -6.57658
449 1 Ar 1.54878 2.68479 2.32273 1.1666 -0.64284 -0.159557 -5.44652 2.22852 -2.19979
446 1 Ar 1.7173 1.84001 1.065 1.00452 0.977262 0.48388 -0.362022 -0.565189 8.37451
489 1 Ar 3.04246 2.75892 0.55959 -0.858984 0.163997 1.01623 9.4308 10.0133 -13.7176
453 1 Ar 3.95767 2.63867 1.22195 1.43 0.171596 1.33885 0.198304 7.81486 -5.17625
91 1 Ar 2.78844 1.76943 0.764183 -0.973779 0.765546 -1.35641 9.85057 -10.6527 15.6543
413 1 Ar 4.93166 2.46434 0.834866 -0.738611 -0.994098 0.246395 -2.58698 5.3927 -18.6815
15 1 Ar 5.80621 1.24661 16.7282 0.879941 -0.860775 -0.0946597 -7.17136 -4.4374 -2.16726
529 1 Ar 5.86298 2.16155 1.26554 -1.21735 0.21876 0.0476458 7.85567 5.43332 -5.26349
490 1 Ar 5.77793 2.58984 0.142625 -1.04152 -1.19433 -0.631345 5.64059 -0.795501 13.7229
95 1 Ar 6.72569 1.34476 1.36453 -0.858699 0.667916 -0.310394 7.10799 2.63518 5.11177
458 1 Ar 8.12848 1.43509 1.89711 0.0163676 1.97632 0.363239 4.70579 -2.74835 -4.54894
94 1 Ar 9.51638 3.11513 1.11745 1.32666 0.752347 0.81327 -24.5463 4.30949 51.5144
54 1 Ar 8.83891 2.22144 1.1144 1.4481 -0.359886 0.0317682 -14.3458 15.6391 8.44164
25 1 Ar 10.7852 1.40892 0.839702 -0.545068 -0.964081 0.242756 -10.0021 24.9708 2.11299
65 1 Ar 10.6382 1.23078 15.5782 0.420917 -1.41141 0.349256 6.69576 -10.8393 23.4157
68 1 Ar 9.77384 2.10466 0.728205 0.550524 -0.69066 1.17577 12.3048 -10.2865 -2.75306
107 1 Ar 10.7157 2.40296 0.310015 0.0485704 0.856093 -0.917095 26.6682 -7.4043 11.8987
61 1 Ar 8.7569 2.87588 0.151223 -0.139289 1.47376 0.218469 2.99287 2.7075 8.24747
27 1 Ar 11.9175 1.94615 0.675174 -1.41619 -0.00596433 0.305031 2.14421 -38.5882 -27.6585
67 1 Ar 12.5003 3.18464 15.5391 -0.158241 -0.431108 -2.25036 -8.39312 -4.19977 -6.31586
3663 1 Ar 11.4857 2.22634 16.348 0.255753 0.280058 -0.285732 7.53021 -5.0333 5.2042
73 1 Ar 13.6714 3.0504 0.513665 0.44414 1.49509 -1.2049 15.5123 11.813 -0.722013
513 1 Ar 14.8032 2.48364 0.585194 0.0685189 1.33471 -0.743533 -5.15492 0.606012 -3.11077
75 1 Ar 12.7643 3.29076 1.03548 -0.678809 -0.494475 -0.647639 -4.44611 -23.3574 -5.20501
36 1 Ar 14.2913 1.51662 0.446986 0.717697 1.40031 0.487274 20.3174 -7.78922 2.9796
74 1 Ar 15.396 1.71576 1.05023 1.00828 -0.102967 0.473354 -1.29358 -2.6073 3.10362
441 1 Ar 15.3247 2.8074 1.48131 0.524815 0.0992453 0.807207 29.2641 13.9751 -62.0535
402 1 Ar 16.7736 3.08292 1.23096 -0.139386 0.207856 -1.23071 15.4313 6.15115 71.1525
525 1 Ar 0.374835 3.98733 0.96206 0.0762558 0.218646 -0.962835 1.38793 15.825 15.0989
120 1 Ar 16.6037 4.46634 0.132067 -0.528413 0.210114 0.163307 -0.562846 10.7829 16.6492
521 1 Ar 1.22405 4.6312 1.06815 0.202568 -1.26682 0.123304 54.0442 -23.6161 1.21847
50 1 Ar 3.01528 4.57037 0.2009 -0.763728 -0.225135 0.221185 38.6219 6.38959 0.494957
82 1 Ar 2.0392 4.63921 0.10179 -0.215057 0.492296 0.315085 -41.7925 13.3388 22.3993
486 1 Ar 1.59336 3.62906 0.761523 0.530386 0.707122 0.0248834 -12.4974 0.966767 0.476095
530 1 Ar 4.32 3.55791 1.7078 -0.292794 -0.411267 -1.62658 3.16539 10.3535 -2.6249
92 1 Ar 4.13329 4.43705 0.625427 -1.08031 2.66558 1.40789 1.88873 -0.768598 0.324029
90 1 Ar 5.65399 4.49222 0.416878 0.159253 0.175904 0.542563 4.86091 3.7621 -1.17671
131 1 Ar 5.42918 3.13764 1.5425 0.10883 -0.506412 0.661748 -1.20158 2.42961 0.0414763
3689 1 Ar 5.01187 3.5038 0.486592 0.572656 1.27641 0.345888 7.62889 5.9836 0.854162
3692 1 Ar 6.20049 3.54991 0.584331 -0.468394 0.287383 -1.47085 1.87898 -3.71024 2.36955
136 1 Ar 7.0863 3.84617 1.18909 -1.04209 0.823008 0.351668 -5.02231 -8.98863 -17.2598
500 1 Ar 7.54656 2.199 1.45493 0.241136 -0.178096 -1.45531 3.331 -3.09716 1.16278
144 1 Ar 8.84905 3.9121 1.51843 1.33422 -0.808747 1.00995 -11.0378 12.6411 -20.2479
493 1 Ar 7.80247 3.56001 0.217235 0.263204 -0.769769 -0.310623 0.80152 -3.27148 2.17397
135 1 Ar 8.9418 3.95607 0.283722 0.474387 0.554304 -1.43369 -0.685395 3.03983 6.68682
102 1 Ar 9.87025 4.18453 0.924767 0.656521 1.48931 0.682353 -3.51852 -5.71836 -5.38145
103 1 Ar 11.1202 3.36083 0.607172 -0.389743 0.0287378 -0.918366 -0.0206222 6.54871 1.15106
112 1 Ar 11.9287 4.01281 1.13275 -1.41391 0.592032 -0.451889 1.62819 -1.52182 -5.50724
110 1 Ar 12.9962 4.07001 15.8839 0.381153 -1.19336 -0.825864 -0.0874584 14.6089 3.22063
155 1 Ar 14.5898 4.96755 16.6745 1.17667 -0.39468 -0.146914 -14.9401 -19.9965 3.10858
76 1 Ar 12.087 3.13668 0.0640592 -0.588218 -0.00122787 0.444763 3.5732 -6.37196 0.485515
553 1 Ar 13.7693 3.95053 0.0613287 -1.23279 -0.590193 -0.350883 26.8682 20.2139 -14.5105
115 1 Ar 14.7802 3.81767 16.4369 -0.197017 -0.848085 1.25613 -13.7793 3.56585 -5.59834
114 1 Ar 14.5127 4.33592 0.907811 -1.5554 -1.0724 0.812462 -18.8222 -10.1787 1.83986
159 1 Ar 15.4965 5.40229 0.00191573 -0.738767 0.277597 0.175241 11.3466 13.759 -6.55167
509 1 Ar 13.5431 4.01496 1.1853 -0.196106 0.264346 -0.297943 -6.30845 -1.26868 -5.88461
117 1 Ar 15.45 4.53504 0.607511 0.0930713 2.15032 -1.10373 17.1707 -2.85905 -5.07029
84 1 Ar 16.7175 3.30896 0.302338 0.806159 -0.0851292 0.935282 -3.04489 23.917 -30.3134
81 1 Ar 16.039 3.74956 16.4355 0.583334 -1.76957 -0.427617 -12.4528 -3.42744 -8.70097
124 1 Ar 0.479083 5.14504 0.77892 0.998038 -0.310049 -0.769282 -45.9395 28.0196 -12.7144
163 1 Ar 1.52992 5.57691 0.633547 0.188661 -1.7029 -0.633184 -7.26549 -24.4131 1.10879
565 1 Ar 2.44206 4.39541 1.13858 -0.648084 2.20233 -1.35119 -2.93489 -3.10017 -1.95448
128 1 Ar 2.80402 5.54127 1.08337 0.143589 0.118839 -0.488447 21.5403 10.7014 -23.6044
526 1 Ar 2.64803 5.80329 0.0439657 -1.31317 0.31939 -0.550151 1.3648 -0.992262 -8.77746
165 1 Ar 3.55965 4.88984 1.55469 0.199765 0.438182 -0.736972 -11.8463 -22.4203 8.5064
491 1 Ar 4.20634 5.74738 2.38659 -0.913438 2.05807 -0.795627 -6.1568 -0.538855 2.27099
129 1 Ar 3.77154 5.3817 0.121028 -0.336627 -0.197163 0.641461 -19.7141 -24.1485 3.70976
3731 1 Ar 4.9241 4.82345 16.4987 0.717926 0.101593 0.279084 30.1386 -74.8866 -0.481548
133 1 Ar 5.15309 4.33938 1.3385 0.358701 0.585268 -1.38225 5.9115 -20.4366 -12.2381
96 1 Ar 6.77301 4.31448 16.5204 0.003255 0.145587 -0.428745 6.72917 -1.40634 26.9687
3735 1 Ar 6.3595 5.75062 1.1974 -1.15395 0.252944 0.627646 9.08366 -3.0672 4.38256
130 1 Ar 5.33606 5.43075 1.28632 -1.36856 -0.488806 1.04675 -8.73859 -0.701449 -5.81667
533 1 Ar 7.69953 4.1125 16.1148 -0.279468 -0.151461 1.42388 -8.39797 -8.32642 -24.1318
573 1 Ar 7.2301 4.98653 0.971022 -1.33652 -1.24352 0.901853 -6.34602 9.35647 -8.08654
538 1 Ar 7.82892 5.671 0.234437 0.4985 -0.0236306 -2.38521 -0.838355 8.76685 -3.23846
534 1 Ar 8.21601 4.73672 16.7009 0.631923 -0.953116 -1.03499 6.99522 2.94982 25.6337
544 1 Ar 9.86244 4.91118 0.0752276 0.388124 -0.501044 0.334186 -18.5718 -25.2287 -1.16965
541 1 Ar 10.5619 4.48814 2.37811 0.395521 -0.559582 0.216112 3.22202 1.63939 9.66223
145 1 Ar 10.801 4.52327 0.137142 0.61826 0.570212 -0.94431 7.52841 -9.7408 13.8829
148 1 Ar 10.7361 5.3957 0.775012 1.02326 1.57345 0.675365 14.5512 -20.449 6.99148
546 1 Ar 11.7227 5.0735 1.37162 1.07324 1.12376 -1.27698 -2.56651 3.6227 -0.426944
147 1 Ar 11.5274 5.72501 0.015459 0.400099 0.679218 0.587136 -0.309181 -3.97863 -10.3508
3711 1 Ar 10.0557 4.90982 15.8021 -0.213105 -0.388193 0.154258 14.6925 -12.5851 -6.18664
151 1 Ar 12.3059 4.94044 0.461675 0.4883 -0.408308 0.689422 1.40434 4.42506 7.09338
591 1 Ar 12.7996 3.99814 0.27696 -0.252709 -0.525608 -0.072776 -19.7786 5.49424 -2.3447
191 1 Ar 13.9839 5.73961 0.166801 0.40291 -0.084299 1.4911 -31.3875 -26.192 20.5648
599 1 Ar 14.7127 6.31203 16.7304 -0.0236046 0.532228 -0.725219 44.7203 26.9412 -15.9104
596 1 Ar 13.6242 6.21004 1.40623 -0.42275 -0.220029 0.126997 17.3462 -9.97398 37.2309
121 1 Ar 16.625 5.39627 16.1937 0.73712 -0.65291 0.313368 -2.52767 1.4774 -0.652234
518 1 Ar 15.3799 6.20031 1.05378 -0.164416 0.387265 -0.52662 12.2116 -11.0976 9.33035
598 1 Ar 15.4667 7.01772 0.444868 0.768021 -0.810034 -0.230027 4.64229 1.04921 -5.07656
605 1 Ar 0.573463 6.08192 0.26311 -0.210718 -1.81667 0.576001 1.48544 -3.91258 -13.0059
158 1 Ar 16.5257 7.2843 0.886421 0.523498 -0.647465 -0.522839 8.39336 10.2843 -23.7692
205 1 Ar 1.33548 7.8163 0.101951 0.153544 1.98785 -0.474387 6.22573 10.2845 -2.10375
563 1 Ar 0.901713 6.18538 1.31728 -0.590702 0.54272 -2.06564 4.99857 -17.91 -14.9007
522 1 Ar 1.93872 6.40048 1.45169 1.06843 1.42615 -0.0718022 2.52946 -1.9976 18.4988
132 1 Ar 3.84593 6.3427 0.434572 0.177158 -0.898254 1.66885 -9.62923 12.8729 3.32511
609 1 Ar 1.89582 7.47329 0.982926 -0.148759 -0.175103 -0.219305 -15.7738 -28.4996 -23.0129
173 1 Ar 3.72616 6.42555 1.69779 -1.01438 -0.81399 -0.0643624 -10.8364 -8.56563 -16.8153
174 1 Ar 4.6488 6.41077 1.15765 0.24323 -0.866132 -0.390189 -0.536462 21.9822 -46.1183
170 1 Ar 3.16013 7.11247 0.0142038 -0.641101 -0.164444 -0.251251 36.5124 -5.87425 -5.36385
610 1 Ar 4.4235 7.09982 2.07135 -0.462706 0.0771343 -0.0475304 -11.8946 -3.47636 -16.5861
178 1 Ar 5.3623 7.3037 1.22309 0.140522 -0.082137 -0.973878 1.75152 -40.7082 12.2127
3375 1 Ar 5.72506 6.70505 16.5102 -0.452905 0.400667 1.49608 11.3587 -14.4503 -24.7336
618 1 Ar 7.32333 6.29667 1.21577 0.140941 1.2441 0.0464485 -14.7919 -42.5632 -42.9196
141 1 Ar 7.87835 6.82271 0.240804 0.394906 -1.0576 0.419495 12.1357 -26.1735 -19.8736
180 1 Ar 8.94783 4.92986 0.981387 1.92245 -0.372445 -0.593069 3.58611 -3.62643 -3.95427
183 1 Ar 9.67513 6.65016 16.6864 -0.189891 0.373264 -1.06509 2.53481 -6.89746 -4.68417
219 1 Ar 8.85464 6.41939 0.556799 0.174048 -0.992237 0.0916123 -5.80003 -13.81 27.2614
585 1 Ar 9.73658 5.67312 0.70589 -1.06867 -0.525422 -0.450172 -11.1149 19.6971 13.0078
586 1 Ar 10.2981 7.89485 1.00481 0.559804 -0.0516142 1.33688 20.6977 16.3478 -6.78427
3785 1 Ar 9.55061 7.20949 0.908826 -0.781137 1.0077 0.350663 -6.57785 -10.8997 3.2549
181 1 Ar 10.3744 5.70778 16.5102 0.782733 -0.317063 -0.718534 12.196 16.224 -4.19406
187 1 Ar 11.4671 6.90629 0.212562 0.323652 1.62211 -0.486502 4.3842 -23.3547 15.7157
188 1 Ar 10.6869 8.73944 16.5076 -1.34792 0.532583 1.25239 -3.45712 -3.76311 5.95965
229 1 Ar 12.6628 8.01007 1.59058 -1.15145 0.828579 -1.20863 18.0335 -13.1948 -6.58619
190 1 Ar 13.4418 6.51333 0.493349 -0.1394 0.826279 -1.49072 -8.46103 43.7161 -18.1421
3790 1 Ar 14.9004 7.99782 0.411207 -0.741058 1.27423 0.383546 5.5064 -18.7068 -8.53548
3750 1 Ar 12.3605 8.35357 15.5948 -0.203686 -0.62509 -1.91511 -27.8948 -6.90179 -21.1036
3760 1 Ar 13.7096 8.60655 16.4187 -0.443032 0.546162 -1.20719 -6.38487 4.57627 11.7614
199 1 Ar 15.3398 9.25544 1.16159 0.727346 1.46652 -0.220993 1.30052 1.33419 -1.58931
560 1 Ar 14.5837 6.93065 1.96775 -1.19026 -0.680896 1.27779 -18.8862 24.1165 -21.8852
594 1 Ar 14.5234 7.80409 1.33864 0.32883 -1.13462 -0.568977 -6.13272 1.10248 14.7581
3799 1 Ar 0.305955 8.13956 15.9743 0.982548 0.738212 0.272882 17.3913 0.454003 6.31918
597 1 Ar 15.6766 7.84895 1.2726 0.224264 0.367828 -0.122792 -1.95488 5.85139 -12.0632
608 1 Ar 0.676145 9.07685 1.13893 1.51364 0.830711 -0.695126 14.5678 -1.11434 -2.19764
207 1 Ar 1.62121 8.5155 0.895847 1.12324 0.541088 1.17543 -65.7134 -8.6048 -0.732004
201 1 Ar 0.281374 8.02015 0.248145 -0.376205 -0.446481 1.43344 -1.66945 -13.3824 2.9503
167 1 Ar 2.47875 7.83983 0.12694 -0.183096 -1.42747 0.475932 -20.5187 -1.83117 16.3916
210 1 Ar 3.556 7.53861 1.97185 -0.866322 -0.0847729 -0.399171 -46.3986 0.0224582 -6.58366
3772 1 Ar 4.01382 7.25419 1.03053 -0.567638 0.270344 1.07422 30.5891 -27.8967 9.38879
211 1 Ar 5.52233 8.03368 1.95974 0.864082 -0.868424 1.55186 10.3542 38.1893 -6.86178
3774 1 Ar 6.33117 6.95356 0.691165 0.356791 0.220053 -0.418669 -15.1666 8.00591 12.6993
651 1 Ar 6.33098 8.23063 0.0297779 -1.13361 1.26239 0.579251 0.679084 4.8032 -9.98135
620 1 Ar 5.57149 7.56309 0.227086 0.110158 0.0818847 0.674402 2.81578 6.61714 25.9324
215 1 Ar 8.45284 7.83401 16.0328 1.01029 -1.09152 -0.406383 9.59991 2.04489 -9.53762
297 1 Ar 6.37083 8.1026 1.07123 0.211079 0.710648 0.473383 -2.38312 -1.84024 8.69754
224 1 Ar 7.66075 8.27925 1.21916 1.28394 -0.0772725 0.684881 -26.8515 -27.9182 -15.0154
3779 1 Ar 7.19936 7.4232 0.626493 -0.0440504 -0.186672 0.869165 -2.21288 33.9678 1.79868
3821 1 Ar 7.98507 7.97198 0.139942 -1.68662 -1.11334 -0.536136 -7.90842 6.59735 11.8141
225 1 Ar 9.50503 8.95811 16.1994 -0.0296361 -0.362314 -1.70628 -5.91619 -10.4954 18.6992
582 1 Ar 10.1303 9.50548 0.418216 0.465626 1.09343 -0.59473 -6.91654 -12.1647 3.39057
222 1 Ar 8.78116 9.78661 0.95853 -1.53444 -0.697024 -0.340989 -33.189 1.7499 -15.7246
3791 1 Ar 12.373 7.99432 0.0871643 -0.693763 0.346515 -0.29434 -32.6328 23.8268 -12.0596
3836 1 Ar 11.425 7.88468 0.734152 0.833305 -0.630332 -0.324732 -1.3907 8.59946 -26.1719
3796 1 Ar 12.0898 8.62141 1.03096 0.0987554 -0.841948 -0.271827 -6.72875 20.0381 -13.2709
195 1 Ar 13.1432 8.61994 0.556062 -1.10166 0.517794 0.889771 2.78348 16.2789 5.57196
636 1 Ar 12.8402 9.24587 1.50401 -0.812567 -1.07549 -1.44865 2.85282 -1.60198 -6.61904
197 1 Ar 14.2878 8.76004 0.728814 0.331918 -1.25319 -2.11418 -8.85262 14.0632 5.66986
237 1 Ar 13.6779 9.71562 0.351732 0.147662 -0.344649 1.48354 -3.1378 -17.5381 7.20994
164 1 Ar 16.5846 8.55199 1.02997 -0.171193 0.416318 -0.737611 -12.5752 -20.6495 -1.4239
3803 1 Ar 14.681 9.95882 0.48989 -1.36677 2.47073 -0.484032 1.91868 -15.2903 3.72693
240 1 Ar 16.5545 9.43225 1.5413 0.810702 0.105583 0.326788 -13.9014 17.2185 14.0849
3808 1 Ar 16.2914 8.7462 16.7819 0.00482784 1.40657 0.219902 3.16495 15.0934 5.86744
208 1 Ar 0.599403 9.00283 0.0373948 0.899111 0.334087 0.52888 12.303 2.90946 0.161525
641 1 Ar 0.668009 9.84317 1.88991 0.30803 1.07297 -0.650109 10.6706 8.02104 -12.6065
242 1 Ar 3.04167 9.3805 16.3453 1.66981 -0.871999 0.986976 1.93634 -5.53097 -11.9848
612 1 Ar 1.68242 9.55204 1.26954 0.399076 1.34629 -0.0400623 -3.34851 -13.8294 -18.356
212 1 Ar 2.06653 10.3772 0.613485 -0.232426 -1.51525 -1.10974 -25.5429 13.5659 7.96465
213 1 Ar 4.10662 8.29997 0.979524 -0.527106 -0.281228 -0.797032 -14.7167 29.7765 18.2391
649 1 Ar 3.74338 9.39442 1.23759 0.159952 -0.674448 0.0896213 0.147823 -10.1963 -21.7534
1010 1 Ar 3.16311 7.73158 1.01676 1.60164 0.508419 0.88908 -24.9657 53.6714 -5.42025
3812 1 Ar 2.83308 9.73947 0.555104 -0.756634 0.723911 -1.44036 21.4697 -15.4758 0.138066
653 1 Ar 5.14007 8.22658 0.948966 -0.370839 0.573648 -0.859763 0.638564 22.0718 -13.9467
3856 1 Ar 4.85212 10.4005 0.654059 -1.57055 0.776523 -0.381925 -11.3419 18.6793 12.8957
3815 1 Ar 6.15158 9.33757 0.29957 -0.424671 -1.26985 -0.168938 1.93342 -7.24833 -4.64937
655 1 Ar 5.73649 10.2711 0.0622475 1.15373 -1.10289 -0.664598 6.93608 8.1689 -1.8454
3820 1 Ar 7.05358 9.68474 16.4745 -0.285822 0.952416 -1.09707 8.0957 36.2813 -1.70577
218 1 Ar 6.80027 9.63309 1.10791 -0.364369 -0.847493 0.571343 -6.27654 -42.0643 27.0803
253 1 Ar 5.75244 10.117 1.17824 -0.28711 -2.37632 -1.50441 -4.52171 7.54677 -6.85534
255 1 Ar 7.34968 8.9926 1.91011 0.146157 -0.314232 0.0336554 0.174768 1.80764 4.51399
223 1 Ar 7.74526 9.34404 0.909617 0.599911 -0.805191 -0.248593 24.8501 -3.18508 -1.07951
665 1 Ar 7.71688 10.4058 0.792745 1.67425 0.849523 -1.06158 4.72676 7.97244 20.7623
3859 1 Ar 7.95226 8.86602 16.2702 0.412961 -1.59541 -0.183317 28.2359 20.7557 -6.08976
3784 1 Ar 8.246 9.90896 0.0455777 -0.265247 -0.28331 -0.22359 -7.71938 -6.73819 -13.8527
669 1 Ar 11.01 8.91792 0.791771 -0.416152 -1.18169 0.787038 0.740574 -2.57618 -0.0556487
626 1 Ar 9.88027 10.2797 1.23624 -1.11906 -0.660505 -0.157618 37.7122 -11.5356 -30.9845
267 1 Ar 10.305 10.7681 0.351464 -0.0979827 -0.507625 -0.116491 -0.703981 1.50173 -4.66586
228 1 Ar 9.30575 10.0182 0.0432628 0.885408 0.50473 -0.993503 12.9304 -10.5767 -19.8096
672 1 Ar 10.8657 9.94775 1.08069 -0.479415 -0.608772 -0.691285 13.6239 9.88923 0.0977921
3907 1 Ar 12.0518 10.0547 16.4576 0.134211 0.0338547 -0.752529 0.263885 1.9657 -4.91827
230 1 Ar 12.6341 9.55293 0.419047 0.850088 -0.487009 0.754093 -6.53539 2.07182 1.92756
3871 1 Ar 12.0591 11.2101 2.78981 -1.37802 0.0837216 -0.172256 -1.71879 -2.26641 1.42298
3795 1 Ar 15.7082 10.2766 0.599986 -0.0725439 -0.469589 0.518593 10.0787 -0.193318 7.42746
194 1 Ar 13.8474 10.5732 1.03441 -0.871922 -1.53899 -0.568828 -10.2363 -6.99447 -8.9525
315 1 Ar 14.8993 10.9657 0.59939 0.0569472 0.333115 -0.210744 -4.96502 20.3993 0.111713
234 1 Ar 15.9132 9.7901 16.4718 -1.12598 -0.57463 0.119084 7.57469 18.9091 8.47887
717 1 Ar 16.6754 9.62465 0.477348 -0.940442 -0.337152 1.93473 -7.22616 8.156 2.29636
680 1 Ar 15.7258 10.2171 1.99999 0.246114 0.303816 -0.378066 -0.28981 7.91897 -9.87237
279 1 Ar 0.775076 10.1835 0.710991 0.16047 0.534633 1.10182 3.65532 1.99891 6.32864
248 1 Ar 0.0616013 11.7344 0.923946 -0.192151 -0.753421 -0.0329702 -16.2133 16.4755 9.83613
241 1 Ar 16.7405 11.6263 16.5069 2.19153 -0.798743 0.287664 7.49951 19.3897 -4.86278
245 1 Ar 1.01788 11.3365 0.99232 0.892833 1.44345 -0.535055 14.5212 -13.1874 1.78289
287 1 Ar 2.33328 11.3536 1.0627 -0.508087 1.41188 1.15909 -26.9139 15.1116 8.19559
331 1 Ar 2.6737 11.136 0.115951 0.588113 1.17629 0.350183 1.62171 5.42755 -9.87745
725 1 Ar 2.63136 12.3862 0.521361 -1.23827 -0.182068 -0.289482 -5.42297 11.9934 -7.42469
1089 1 Ar 4.98808 11.5817 1.39148 -0.133583 0.394826 1.91104 0.512282 -42.631 -32.8603
1090 1 Ar 3.29066 11.6509 0.825724 0.83672 -0.12221 0.410668 19.6199 -0.693709 5.4692
249 1 Ar 3.70941 12.506 0.228198 1.23549 0.0306148 -1.52652 -28.7327 -13.4384 -5.7697
291 1 Ar 3.61916 10.7118 0.460197 -0.704021 0.445258 -0.725861 15.9269 -8.73949 -16.3176
250 1 Ar 5.88589 12.1322 1.41085 0.653412 -1.44252 -0.195461 5.83781 -7.48552 -15.0167
257 1 Ar 7.30715 11.5282 0.559312 0.285009 0.260831 1.25469 -0.826803 -3.24269 5.95808
693 1 Ar 7.99574 11.7889 16.5501 -0.445593 -0.179747 0.135957 -5.96432 -8.00153 -4.67089
259 1 Ar 7.1616 11.1158 1.74213 0.209021 1.43014 1.65097 -2.26087 -13.1865 3.72262
258 1 Ar 7.50795 10.7981 16.6445 -0.977287 -0.699919 -1.10564 3.15476 -14.9656 4.75042
668 1 Ar 8.98125 10.7728 0.607835 -0.219564 0.520045 0.0347285 -23.4304 -3.82911 3.10143
666 1 Ar 10.6181 11.092 1.36795 0.561988 -0.394825 -1.08588 3.1945 -2.58797 1.24903
707 1 Ar 10.2449 12.4335 0.35851 -0.394537 1.16838 0.331464 -10.3069 -11.9782 -10.254
272 1 Ar 11.1127 13.0797 1.60726 -0.00456393 0.5054 -1.29073 7.21857 5.06749 -4.1889
3866 1 Ar 11.0166 11.7099 0.455928 -0.0238988 -1.58204 0.420227 -2.47236 -17.8942 -7.74836
3872 1 Ar 11.2192 11.8465 2.22417 -0.394212 0.368286 -0.463458 0.409566 1.40377 -4.07894
270 1 Ar 11.8096 11.9055 1.19505 -0.539789 -0.698254 1.36929 -7.1253 18.0728 -7.07265
3949 1 Ar 12.7735 11.9471 0.459275 0.0753468 -0.0551931 0.941556 -8.35979 -11.6512 -7.49151
273 1 Ar 12.713 11.433 1.42885 -0.698384 -0.316198 1.04256 13.0106 -25.3126 -8.37797
3435 1 Ar 13.9172 10.6269 16.698 0.386504 -0.613975 1.09057 18.1292 22.6493 4.71927
353 1 Ar 12.7554 10.3779 1.78621 -1.67071 -2.0572 -1.0295 14.7944 13.8656 6.71409
3916 1 Ar 13.8569 11.7444 0.109499 -1.21829 -0.944885 -0.609746 0.233143 -1.39845 1.33999
3884 1 Ar 14.1419 12.6355 0.90882 -0.55712 0.504459 0.79844 4.66157 -7.82763 -12.0087
319 1 Ar 15.8564 11.9213 0.291145 0.561111 -1.04956 -1.34223 2.83947 -17.0344 8.87811
718 1 Ar 15.9231 11.4426 1.3388 -0.722009 -0.318515 -1.36067 -10.4875 -20.155 -0.0544581
278 1 Ar 14.7984 12.5836 16.4332 -0.320826 0.0470454 0.524154 -1.85886 -28.9989 22.6148
282 1 Ar 0.854069 12.3357 0.671826 -1.34969 1.04487 0.41948 9.39075 17.1433 -5.72929
285 1 Ar 2.83636 12.3887 1.57207 -1.07494 0.334488 -0.0732791 -7.76884 2.46985 -17.5604
1171 1 Ar 1.12048 13.2781 1.27323 -0.808752 0.69703 -0.352842 8.98703 -1.37616 -1.87327
732 1 Ar 2.41105 13.4589 0.994452 -2.87003 -0.0146631 0.510575 -0.185719 -8.3402 -0.084355
690 1 Ar 3.71666 13.0286 1.28678 1.28524 -0.914786 -0.795299 -12.2399 19.5657 -1.51755
332 1 Ar 4.54035 13.6996 0.993453 -0.591901 -0.171681 0.922211 2.8577 -11.3618 2.63158
729 1 Ar 4.67386 12.6255 0.404618 1.28252 0.254589 -1.53113 -1.48059 7.58361 31.1371
1094 1 Ar 5.48871 13.4812 1.72865 0.105515 2.46524 -1.38596 -3.51121 1.18215 3.00672
333 1 Ar 5.50069 12.8965 16.7648 0.0229637 0.23188 1.16745 26.1509 9.76488 -19.2053
694 1 Ar 7.45993 13.5498 16.7871 0.576568 -1.21631 -0.41021 -0.906608 1.68405 23.282
295 1 Ar 7.51703 12.651 0.502702 -2.0283 -0.240293 0.223631 1.59473 -13.5689 7.92395
700 1 Ar 6.32867 12.9559 0.821406 0.197992 -0.35235 -0.864112 2.73728 2.22197 -8.69539
302 1 Ar 8.46472 13.3309 0.524151 -0.0466731 -0.671344 -1.72861 -11.4226 5.19152 11.6489
3864 1 Ar 8.41177 11.6568 0.747132 0.808845 -0.384606 -1.03686 18.3154 -0.904374 -27.3708
3903 1 Ar 9.34981 13.6793 1.16154 1.29716 1.21073 -1.1052 -12.2263 -4.62343 29.9343
266 1 Ar 9.39568 13.7534 0.173315 -0.00920241 0.620085 0.178988 17.948 12.346 -3.78631
308 1 Ar 10.2783 13.2905 0.89925 0.0112053 0.850064 -0.334431 2.56538 11.5988 12.2998
305 1 Ar 10.0925 14.475 0.835078 0.9473 0.588099 0.101951 -22.9194 -7.48991 -9.40405
3947 1 Ar 11.7675 11.945 16.597 -0.615492 1.12832 0.852198 6.36577 -5.75332 -12.5726
3951 1 Ar 11.0725 14.3315 0.318125 0.107618 0.113622 -0.713343 -1.55763 4.1625 -22.9013
385 1 Ar 11.1857 12.9374 0.448392 0.750801 -0.256149 -0.467377 12.7496 -1.8843 -0.729752
310 1 Ar 12.2846 12.8203 0.0440406 0.600943 -0.813278 -0.115746 4.29169 13.0528 -8.69248
360 1 Ar 13.1912 12.3528 1.33108 -0.154586 1.36927 -0.714522 2.34409 -26.9785 -1.59747
3920 1 Ar 14.3435 13.8325 1.69695 0.145529 -0.77891 -0.469162 -2.53954 9.14932 -0.620293
354 1 Ar 13.4124 12.7341 0.135384 -0.499121 0.893124 -0.235714 1.2763 4.05353 -6.83769
3959 1 Ar 14.6969 13.6555 0.461254 -1.97129 0.140146 -0.961516 -11.9051 1.51348 14.1941
357 1 Ar 15.5669 13.8707 1.10613 0.741655 -1.75708 0.398505 -15.2321 -1.56661 1.19174
322 1 Ar 15.985 12.7195 16.4234 -0.464759 -0.852126 0.326079 5.98446 2.72165 -15.5749
321 1 Ar 16.5339 12.8304 0.752441 0.821497 0.591727 1.41182 14.5184 -3.46236 -3.32569
318 1 Ar 15.4236 12.8335 0.530478 1.3601 0.576844 -0.135803 1.35543 8.36198 -11.7959
328 1 Ar 0.610702 13.5707 0.405303 0.408345 0.800685 0.532689 -2.59142 20.0334 6.64294
765 1 Ar 0.722473 15.2847 1.67382 0.0136967 -0.223878 1.06622 4.79565 21.6418 -9.4466
368 1 Ar 0.985493 14.7306 0.647206 -0.391584 1.07606 -0.645363 1.38146 3.61882 -0.331818
768 1 Ar 1.87538 15.05 1.96927 -0.0543904 -0.905131 0.448478 31.3054 42.0004 7.5166
367 1 Ar 2.31306 14.5185 0.862356 1.55049 1.76465 0.863286 -4.13635 3.33802 9.1343
726 1 Ar 1.60679 13.9981 0.279471 1.3203 -1.34732 1.64179 -3.62569 -17.396 11.0019
371 1 Ar 2.19345 14.2421 16.2925 -0.37409 -0.680106 0.0323429 8.8246 17.3907 -13.9855
336 1 Ar 4.22734 14.661 0.740409 0.00484999 -0.978198 0.606425 -3.90823 10.6967 -5.33278
730 1 Ar 3.09495 13.6148 2.20977 0.272044 0.0955888 0.234898 -2.86001 -4.14774 -14.8314
335 1 Ar 5.61968 13.7383 0.660276 0.757153 1.75958 0.730789 -4.06769 8.68806 -0.296961
734 1 Ar 6.07497 14.8652 0.964305 0.933367 -0.807876 0.726455 -16.8758 38.7588 -17.8977
735 1 Ar 5.18119 14.5124 1.40512 0.087629 -0.919795 -0.704661 -8.77759 0.818737 0.603627
1177 1 Ar 5.99235 14.4955 2.16894 -0.32256 -1.01333 0.346829 -2.86232 -9.0371 -1.66374
733 1 Ar 6.52481 14.0513 1.22894 1.73552 -0.214607 -0.0632648 14.1208 -42.0731 17.3826
780 1 Ar 6.30655 15.466 1.83602 0.47824 0.731689 0.413765 11.6445 9.58175 -21.2511
1137 1 Ar 8.19231 15.246 1.34986 0.864999 -0.58419 0.913808 4.03147 -8.55121 -10.5704
343 1 Ar 8.11818 16.2645 0.879848 1.39487 -0.153481 -1.25439 19.9039 -20.2878 -5.15274
747 1 Ar 8.87548 14.5841 0.846161 -0.449948 1.37366 0.0498701 1.24282 1.32647 -10.9972
337 1 Ar 7.76791 14.4657 0.67031 0.173238 -0.664332 -0.756662 7.61177 -9.6697 1.47746
346 1 Ar 10.6424 15.3604 0.600846 -0.0754726 -0.124325 -0.133248 15.4742 -19.6385 -10.2767
342 1 Ar 9.62158 15.4909 0.605949 -0.99971 -0.820783 -0.125755 -10.5756 1.97348 6.79234
345 1 Ar 11.5768 15.1824 1.04197 0.473721 0.789854 -1.76657 8.96803 4.86474 -5.84223
348 1 Ar 12.8049 14.5306 0.802098 -1.17511 1.47379 -0.0925086 3.59736 2.00772 4.59711
786 1 Ar 11.4787 15.3594 16.6396 -1.11928 1.47977 0.828335 26.879 -34.0957 26.4104
3910 1 Ar 10.2865 14.4921 16.1448 -1.30417 -0.771596 0.244338 25.4647 7.98801 24.1575
3912 1 Ar 12.9829 13.7606 16.7149 1.11828 -0.562977 0.0696776 -2.47518 1.2673 20.745
393 1 Ar 13.8285 14.7232 1.2727 -0.398388 0.875658 -0.723229 -6.23003 -2.69978 7.27529
350 1 Ar 11.866 13.9665 0.931596 1.18184 -0.0418645 0.301155 4.63308 0.0820308 0.640836
391 1 Ar 13.2961 13.3038 1.04655 -0.0427106 0.883897 0.996081 2.78917 32.6463 -9.82406
4000 1 Ar 14.6325 15.5687 1.32418 -1.31057 0.238381 -1.18097 -11.583 13.6236 -0.135897
400 1 Ar 14.142 14.876 15.354 0.338171 1.34952 -1.01926 11.6341 10.5521 -2.86158
3591 1 Ar 13.5503 14.533 16.2976 0.26829 2.06831 -0.0493516 14.6188 10.8096 8.11275
758 1 Ar 16.5809 13.9204 1.11609 0.285462 -0.758651 0.111832 7.40299 -14.1439 -9.74626
395 1 Ar 15.8203 14.7093 2.24929 -0.660614 0.163224 1.03794 -15.9054 -10.6041 -13.636
358 1 Ar 14.6884 14.6535 16.4027 -0.796044 0.540528 -1.62319 -1.04136 -9.69949 -6.83847
3 1 Ar 1.10365 16.5338 1.6138 -1.3143 -0.191554 1.77443 15.9346 -4.53557 1.82349
4 1 Ar 16.4716 16.169 0.56626 -0.133331 0.56575 -1.46527 5.07824 -7.57173 2.46176
399 1 Ar 0.0895642 16.6807 1.68598 -0.249783 0.962943 0.794327 4.58395 -26.2643 31.9858
364 1 Ar 0.81715 15.8537 0.792497 -0.0387801 -1.11578 0.114109 -4.29941 1.77797 -4.90959
405 1 Ar 3.1346 15.1382 1.86817 0.477834 -0.734572 0.319622 -1.49251 3.01026 1.94503
361 1 Ar 1.7846 15.4084 0.957321 0.478225 -0.745112 1.3804 -3.16564 9.3893 -0.248452
762 1 Ar 3.08242 14.5478 0.159422 0.153977 0.882598 -1.98416 5.49812 1.25297 -6.51838
409 1 Ar 2.86823 15.582 0.784599 0.472653 -0.78795 -0.223282 2.48207 -0.575212 2.79891
770 1 Ar 3.23328 14.1979 1.30466 1.1278 0.4828 0.0510813 4.90946 -2.48767 -8.66515
11 1 Ar 3.50525 16.2002 2.09654 1.02277 -1.80837 -0.346395 -12.9417 -18.5624 27.996
773 1 Ar 3.59072 15.5181 16.72 0.981833 -1.02248 0.468278 0.693298 -2.54866 -7.40192
374 1 Ar 4.32143 16.5052 1.59196 -0.650982 -0.570634 -1.65435 21.5901 18.5577 -15.8038
736 1 Ar 4.25725 15.2778 1.70702 0.61939 -0.343873 0.174513 0.364758 -1.40584 -12.1715
380 1 Ar 5.03673 15.6223 0.79326 -0.531345 0.026 -0.732345 3.01148 -9.41946 -13.3792
340 1 Ar 6.03024 15.9833 0.53842 -0.987378 0.519877 0.621724 15.5054 -4.9573 4.39032
3979 1 Ar 8.83093 16.7857 16.326 0.544105 -1.6307 -0.211126 -5.15746 1.51122 -1.41069
419 1 Ar 7.62211 15.9378 1.81499 0.00162432 -0.403631 1.16719 -35.3694 4.02375 -28.5255
741 1 Ar 7.18249 15.5665 0.639033 -0.208483 -1.06289 -0.199431 0.286635 3.69396 -1.28135
3621 1 Ar 9.12144 16.7557 15.2547 0.117769 1.11819 0.360442 -18.3152 -6.73813 24.603
381 1 Ar 10.3954 16.2893 0.867843 -0.377245 1.88649 -0.654176 -4.7219 7.75544 -9.42519
742 1 Ar 9.77962 16.3221 16.6238 0.0346783 0.985882 -0.813101 17.8063 10.1474 4.45779
386 1 Ar 12.42 15.8224 1.35014 -0.590925 0.246725 -0.999938 -4.44913 4.96655 -13.431
3987 1 Ar 11.4572 16.359 16.4921 -0.82628 0.767365 -1.45207 -8.61205 24.5663 -11.4039