ITEM: TIMESTEP
5700
ITEM: NUMBER OF ATOMS
4000
ITEM: BOX BOUNDS pp pp pp
0.0000000000000000e+00 1.6795961913825074e+01
0.0000000000000000e+00 1.6795961913825074e+01
0.0000000000000000e+00 1.6795961913825074e+01
ITEM: ATOMS id type element x y z vx vy vz fx fy fz
798 1 Ar 1.3159 0.490319 0.752807 -0.408754 -0.894158 0.330976 3.2626 -9.39987 0.832016
3602 1 Ar 0.0825486 0.884534 16.6382 -0.0681167 -2.18359 0.283477 15.8329 7.94798 -12.4644
761 1 Ar 2.09596 0.715241 16.7719 0.60332 -0.0217598 0.4177 -22.7937 14.311 17.3034
49 1 Ar 2.22602 16.6336 0.605768 -0.865176 -0.0971253 0.294452 8.09035 0.806531 -0.64778
457 1 Ar 4.49334 1.04988 0.227512 -0.0574772 -2.61362 2.19422 3.90486 8.36435 -3.53223
16 1 Ar 3.65349 0.385596 0.324279 -0.450017 -0.853431 -1.24392 -11.9005 34.7845 -52.9639
414 1 Ar 5.67828 1.35022 0.264523 -0.762484 1.14919 -1.26012 -0.979066 5.60519 -10.0183
14 1 Ar 5.1136 16.7948 0.329101 0.974612 1.55599 -0.111387 4.32152 3.24937 28.4906
64 1 Ar 6.96616 16.7182 0.698507 0.639385 0.00823706 -0.0868694 -8.68371 -15.2844 21.1324
95 1 Ar 6.66368 1.06929 1.34071 0.0713673 -0.766025 -0.48406 14.7432 5.37594 -5.00471
460 1 Ar 6.13621 0.333305 16.7847 -1.39503 -0.482956 -0.251234 -12.8906 1.35709 4.35999
57 1 Ar 7.58711 0.723392 0.627611 -0.269049 -0.665756 -0.256827 -8.98074 34.3346 -10.9858
417 1 Ar 7.81707 15.9045 16.712 -1.07158 1.58707 -0.454573 8.25098 0.882943 -8.05446
379 1 Ar 8.55725 1.52947 0.425993 -0.323503 1.22884 -0.0985402 4.31763 -13.8282 1.21053
24 1 Ar 9.31151 0.932659 16.6523 0.0243192 -0.0837615 0.603763 -2.5183 -0.453083 5.57448
461 1 Ar 9.16552 0.159599 0.668796 -0.0178445 0.624209 -1.6706 -0.172686 5.79817 -5.64533
63 1 Ar 10.2815 0.34716 1.01673 0.531856 -0.259407 -0.312529 -5.07272 9.3369 -15.0287
25 1 Ar 10.3055 1.47509 0.000672008 -0.0724054 0.833664 0.0424728 -20.4319 -2.4786 26.5929
505 1 Ar 11.0687 0.999217 0.658201 -0.784588 -1.19995 -1.85377 -8.47016 -9.4855 1.00035
31 1 Ar 12.637 1.66792 0.40155 -0.233529 -0.762603 0.379923 14.9885 -9.22731 1.15502
473 1 Ar 13.6979 1.11172 0.540633 -0.214684 -0.352371 0.468149 -24.1118 -7.95515 15.6673
3625 1 Ar 12.1303 0.298909 0.867647 -0.399328 0.628184 -1.38225 6.39195 40.8369 -32.3345
33 1 Ar 13.8817 0.356902 16.4527 -0.319222 0.204169 0.21644 6.81797 9.94323 23.6587
34 1 Ar 13.6248 16.7609 0.628796 -1.61268 -0.684862 0.29698 7.45445 17.7254 31.9728
79 1 Ar 14.5913 0.615936 0.74781 -0.15631 0.288225 1.33636 1.64628 4.72653 4.04561
437 1 Ar 16.344 1.21277 0.6594 -1.09603 -1.11038 -0.0680269 14.3564 3.81673 18.2917
35 1 Ar 15.4475 1.15997 0.21794 0.279888 -0.0383705 0.417948 -30.6946 -15.674 -7.41668
438 1 Ar 16.3643 0.0956262 0.255394 -1.61836 -0.867632 0.439167 -13.7727 -3.9616 9.06643
434 1 Ar 0.658728 1.2836 1.00198 0.468502 -1.90035 -0.27776 -5.531 10.5896 -1.78273
442 1 Ar 1.16318 2.94416 1.0403 -0.484657 -0.621737 0.416508 30.5523 -33.8906 -23.6224
481 1 Ar 1.33546 2.12238 0.253114 0.451368 0.112804 -0.642827 -13.6747 7.06088 -0.873802
3688 1 Ar 0.261697 2.03496 16.7 1.58015 0.353157 -1.10596 -3.68949 -13.7628 -3.13596
446 1 Ar 1.76006 1.48926 0.927969 0.240163 0.292329 -0.234522 6.72286 -17.4308 -3.56678
489 1 Ar 3.17156 2.81534 1.14472 0.316481 -1.14555 -0.810344 17.709 -3.20648 2.37431
91 1 Ar 2.85424 1.33636 0.27735 -0.206065 -0.529556 0.393234 1.19096 8.17219 6.62602
487 1 Ar 2.83382 1.81519 1.5558 0.604007 0.753862 -1.51931 7.00424 11.5741 -6.63905
46 1 Ar 2.40539 2.34809 0.646484 0.04666 0.642468 0.0469171 -13.2961 -10.7979 -6.59845
410 1 Ar 3.73959 2.04067 0.309098 1.32735 -0.456465 -1.6526 -1.58778 12.7392 15.3632
453 1 Ar 4.03307 2.1097 1.71122 -0.516269 -0.587703 1.15904 -13.5845 4.82186 1.68173
413 1 Ar 4.74479 2.20226 0.586894 -1.43594 0.551152 0.563722 4.46093 0.571377 -6.77964
529 1 Ar 5.98051 2.42988 0.425302 -0.347172 -0.0796571 -0.22777 -18.6764 8.96926 -2.55661
490 1 Ar 5.45811 2.42723 16.1442 0.20151 -0.732248 0.0830583 14.8086 5.07866 1.80046
500 1 Ar 6.87771 2.47715 0.961601 0.748313 -0.338305 -1.50677 -0.426491 2.92836 13.2804
456 1 Ar 6.74142 1.7743 0.180657 0.325991 0.0693311 0.728554 -12.2532 -17.9637 -6.16124
3657 1 Ar 7.18318 2.80289 16.3817 -0.128955 -0.228054 -0.525112 -20.2159 -15.5299 6.72411
54 1 Ar 8.7138 2.44374 0.919104 0.301345 0.613246 0.0168184 12.1648 -0.552279 10.4322
61 1 Ar 8.80365 3.31644 0.237044 -0.116598 0.163342 0.0879788 -11.6469 7.84853 24.3912
97 1 Ar 8.72743 1.9292 16.2085 -0.409212 -1.54294 -0.756107 14.9175 8.77649 12.4579
3659 1 Ar 7.71501 1.96544 0.0288853 1.0352 0.720144 -1.04046 7.93858 -50.5558 -44.2849
68 1 Ar 9.57758 2.1738 0.299981 2.07665 -1.09062 -0.779276 -6.10183 5.9267 -3.45304
107 1 Ar 10.2378 1.98612 15.8874 -1.17729 -1.53327 0.352003 -1.49305 -2.7652 -16.4557
27 1 Ar 11.2338 1.86441 16.5694 -2.18633 -0.664416 0.258359 10.5272 5.77594 0.753179
467 1 Ar 10.6309 2.32131 0.685154 0.429666 0.199615 -0.0945544 17.5019 -9.9965 -8.3479
466 1 Ar 11.6024 2.76816 1.24019 -1.07778 1.19348 -0.500073 6.72371 -11.7081 9.05101
469 1 Ar 12.8171 1.13134 1.38023 0.413545 -0.835824 -0.668369 -1.28076 3.40804 -7.71507
29 1 Ar 12.8283 2.80993 0.722548 0.166593 1.70982 0.280384 0.0157996 -11.6224 27.0222
513 1 Ar 14.2906 2.73014 0.92346 -0.209036 -0.5677 -0.633696 -1.22199 7.2265 -0.728403
36 1 Ar 14.5393 1.74302 0.655857 0.571909 -1.22959 0.0367362 6.74653 -12.1554 52.1785
71 1 Ar 13.4731 1.97008 1.21409 -0.355146 0.919 -0.12015 0.43062 4.12228 -0.832486
74 1 Ar 15.2615 1.3548 1.36301 -0.707047 0.875752 -1.19732 8.46808 -2.88693 -3.96381
441 1 Ar 16.6199 2.74341 2.4249 -1.19399 -1.12634 0.088471 -5.30104 -7.26521 -23.8567
44 1 Ar 15.3883 2.60289 1.24571 -1.28962 1.17927 1.37362 2.8357 4.01659 -27.7588
525 1 Ar 1.1952 3.95353 0.708944 -0.511336 -0.775005 -0.404183 9.43275 -4.39781 16.4073
3724 1 Ar 1.27949 3.9099 16.4812 -0.132451 0.627833 0.633466 0.194518 10.0485 -4.52099
50 1 Ar 3.2187 4.06627 16.6533 -0.367902 -0.769831 -0.62474 9.7175 -3.05246 0.464499
486 1 Ar 2.02681 3.40817 1.31532 1.37508 0.275978 1.18153 1.88995 -2.73017 -9.0645
565 1 Ar 2.73745 4.27765 0.994277 0.639359 1.03282 -0.604884 -0.901983 -17.6871 13.0684
48 1 Ar 2.60791 3.37166 0.434696 0.46017 0.46923 -0.260893 0.720337 -3.86511 -12.4481
92 1 Ar 3.76205 3.63992 0.734596 -1.0136 0.213429 1.64934 -1.97181 16.2778 13.7985
893 1 Ar 3.4221 3.68245 1.72428 1.28278 1.31428 -1.08844 7.62406 -1.80738 7.2764
3691 1 Ar 3.54942 2.9958 0.0105664 -1.66177 -0.884219 -0.206794 -17.9641 1.84528 7.19
90 1 Ar 6.32155 4.21136 1.13628 -0.903258 -1.11103 -0.64403 -1.75787 5.2714 -1.39267
3689 1 Ar 4.76315 3.46823 0.462281 -0.297687 -0.293374 0.162236 11.7177 -26.8532 -10.7416
133 1 Ar 4.6139 4.26023 1.06983 0.401858 0.0957295 1.23446 1.20745 5.10706 1.38656
3692 1 Ar 6.21433 3.67762 0.118536 0.118749 -0.518636 -0.8777 -11.5209 1.90639 -7.4584
136 1 Ar 7.08215 3.58539 0.664095 0.354952 -0.230621 0.0857612 7.63971 -22.3315 7.23468
535 1 Ar 5.34723 4.10721 1.78173 -0.0708609 1.31449 -0.280836 16.0907 -6.03413 9.87055
493 1 Ar 7.79095 2.75276 0.537329 0.140402 -0.427803 0.0896541 7.25712 62.2291 28.2223
135 1 Ar 9.2687 4.33634 0.198357 -1.6952 0.394075 -0.645889 -7.50132 1.85571 0.997645
494 1 Ar 8.27028 4.19181 0.716419 -1.36794 0.103922 -0.917102 0.460238 1.52219 -5.21601
898 1 Ar 8.25086 3.30299 1.35276 1.0793 0.391056 1.30819 8.42995 0.307335 -8.41935
94 1 Ar 9.88329 2.65922 1.25726 -1.17369 1.28942 -1.8965 -34.9003 -4.52663 16.0624
102 1 Ar 10.2126 4.0966 1.32079 1.14136 0.644874 1.15322 3.41873 -0.592302 -8.55036
3704 1 Ar 9.79425 3.39514 0.522091 0.594685 -0.912067 -1.15525 -16.2595 -9.80553 9.44625
103 1 Ar 10.5143 2.78659 16.4675 -1.87577 0.0882757 0.0636597 -7.45572 6.61494 1.3829
112 1 Ar 10.7697 3.53743 0.420185 1.25338 -0.35095 0.209701 -1.65006 18.4874 45.9733
76 1 Ar 11.4254 2.83517 0.183973 -1.54363 -0.152544 -0.0457242 20.8563 -15.808 -11.013
145 1 Ar 11.5071 5.40025 0.403126 -0.0666058 0.710768 -0.11628 10.2613 -16.791 7.9687
506 1 Ar 11.1649 4.62526 1.10205 0.14584 -0.638353 0.117844 -28.1125 -10.5871 -30.62
73 1 Ar 13.6313 3.68149 0.774234 -1.35246 0.728604 -0.764454 2.41234 -6.23218 5.75699
75 1 Ar 12.0014 3.53678 0.713988 0.983466 -1.27369 0.340336 10.0455 23.1377 -5.24531
509 1 Ar 13.0137 4.25342 1.46495 1.30532 0.363116 0.320688 35.6244 -16.2111 18.5832
591 1 Ar 13.1554 3.31443 16.7052 -0.185538 -0.191709 -0.157804 -12.5029 1.29894 -17.8766
553 1 Ar 15.0523 3.59253 0.555273 -0.520789 1.12915 0.997195 -2.15485 -14.5875 13.0737
114 1 Ar 14.1426 4.45148 1.35857 -0.952629 -1.74174 0.221925 -8.27548 0.000239817 3.21996
475 1 Ar 14.4692 3.15137 1.9594 0.268938 -0.196155 0.20376 5.39372 -10.7864 19.2339
402 1 Ar 16.7915 2.35308 0.904992 1.15256 0.60305 -1.65519 0.0562586 1.14563 -3.04651
120 1 Ar 0.312506 3.92439 0.128547 0.426303 0.412079 -1.18217 -15.2127 15.7584 2.20803
84 1 Ar 0.692076 2.97958 0.0189206 0.286632 1.74294 -0.259991 74.0572 -11.1083 20.9376
444 1 Ar 15.079 3.83879 1.60224 1.07233 -1.1245 -0.26988 20.3131 -2.01226 -7.09644
3683 1 Ar 16.1336 3.23972 0.947375 1.14561 0.712537 -0.531779 4.17758 8.34534 -10.912
521 1 Ar 2.23445 4.27991 0.0467696 -0.121329 1.27871 -2.3134 -11.0056 5.57183 -6.68525
124 1 Ar 0.578329 4.80956 0.80965 0.599385 -0.856428 0.235924 -9.22342 3.8378 16.6679
605 1 Ar 0.205143 6.13075 0.124425 -0.920385 -0.273975 -0.827011 1.28594 6.84988 -7.7528
82 1 Ar 1.84738 5.08572 16.2204 -0.73576 -0.80613 -0.27829 -14.5816 3.17188 2.46465
163 1 Ar 1.59811 4.93832 0.585928 0.613677 0.636036 -1.13048 10.7856 -3.96334 6.81394
128 1 Ar 2.94767 5.20141 0.654122 -1.80065 1.60715 0.616662 10.4728 -22.3332 -22.5681
526 1 Ar 2.21451 5.76658 0.174217 0.745344 0.272118 -0.0759728 22.5819 1.08443 -13.0405
129 1 Ar 3.88261 4.66948 0.448876 -0.179109 -0.642055 0.297048 -2.15397 10.6306 -5.71437
3732 1 Ar 4.37668 5.20314 1.42096 0.646764 -1.12252 -1.02328 -1.21389 10.838 -1.37638
130 1 Ar 5.68449 5.05845 1.40511 0.742499 -0.00764537 -1.29237 -0.0438331 5.66107 13.835
3296 1 Ar 5.67139 4.79789 0.396936 0.273231 0.406021 -0.601798 -0.946501 -7.97157 -6.35037
3775 1 Ar 4.76963 5.28648 0.0762626 -0.614942 1.19603 0.603181 -7.80062 -20.2222 -13.0427
3735 1 Ar 6.62991 5.47396 1.88249 0.245883 0.188436 -0.0647944 -2.8293 -8.36083 4.08261
573 1 Ar 6.86923 5.10298 0.870578 -1.03719 0.143443 1.60632 -6.30807 -15.0213 0.569557
538 1 Ar 7.54433 5.59145 16.6907 1.1679 0.648522 -1.61651 -6.55986 1.22048 -3.09478
180 1 Ar 9.14039 4.90622 1.20737 1.84725 -0.415442 1.38888 -23.8306 -24.1707 -10.5662
977 1 Ar 7.97868 5.34045 1.17868 0.434859 0.418978 0.48144 -5.55935 -9.1037 44.8517
539 1 Ar 8.42229 5.21887 0.327705 -0.480832 0.63926 0.830188 29.6326 -11.578 -35.601
544 1 Ar 9.53269 5.61716 0.556339 -0.576585 1.30433 0.00942376 4.51612 6.43671 -7.9335
585 1 Ar 8.98723 5.90467 1.53171 -1.89269 0.630112 0.360236 5.16319 -13.6844 -14.3677
148 1 Ar 10.6181 5.56427 1.13047 2.26016 -1.41548 0.406719 3.39003 -0.892642 -8.34786
546 1 Ar 12.1627 4.64233 1.20941 1.01567 0.869895 1.54445 -15.7135 20.659 -11.1896
147 1 Ar 12.2687 5.24144 16.3257 0.779826 0.736564 0.672647 -6.50286 -1.47471 -2.89823
151 1 Ar 13.2093 4.78976 0.52833 0.0974258 0.93203 1.35318 1.07824 -1.28466 -1.53914
511 1 Ar 12.5307 5.40792 2.02634 -0.580845 -0.681408 1.03441 -18.6084 -24.0623 -9.26284
156 1 Ar 13.5635 5.57837 1.28908 0.629761 1.04771 1.18428 -24.9738 -13.079 19.7931
189 1 Ar 12.6373 5.74199 0.689525 -0.359794 -1.6578 0.586021 39.4636 -14.34 -25.6893
191 1 Ar 13.5451 5.6808 16.7382 0.291786 -0.324112 1.11927 12.068 -6.22851 8.17256
559 1 Ar 14.291 5.50207 0.632634 -0.118054 -0.245381 -0.243411 -3.58172 -27.6869 -15.3667
159 1 Ar 15.1552 5.68246 0.134307 0.273186 0.415572 0.58605 11.7478 3.67016 -15.5388
117 1 Ar 15.1382 4.60356 0.981011 -0.0653877 0.429775 -0.0202307 7.00716 29.9891 -22.1811
200 1 Ar 0.0133984 5.73301 1.07968 0.291093 0.634383 0.844847 -13.7757 -8.46044 8.17714
563 1 Ar 1.02349 5.26855 1.77901 0.0999971 0.292474 -0.473716 6.64435 -7.96169 -21.7118
602 1 Ar 0.762145 7.18472 0.398866 -1.08945 0.224172 -1.51115 -17.2585 1.58848 -0.198367
522 1 Ar 1.83909 5.83152 1.16412 -1.24243 -0.566402 -0.583795 -13.9509 -4.4544 8.6044
609 1 Ar 1.24356 7.27069 1.31625 0.0411263 -0.911381 0.053479 23.4288 -13.4367 9.79049
566 1 Ar 3.15776 6.61623 0.246113 -1.077 -0.615947 -1.06063 -10.1824 -6.38782 4.33182
126 1 Ar 2.17949 6.6895 0.643178 0.0549688 1.42633 -0.793277 -16.2245 15.3689 -2.98934
132 1 Ar 3.6317 5.65179 16.7075 -1.12778 -0.896162 -1.85141 19.2695 12.2077 13.6495
170 1 Ar 2.91914 7.67211 16.7227 -1.39595 -0.035251 0.886639 2.93415 -2.54681 -4.11581
3772 1 Ar 3.90003 6.13716 0.869362 -0.493932 -0.253512 -0.668022 2.54605 -11.5124 0.942069
174 1 Ar 5.10114 5.81032 0.893683 1.48873 -0.909343 0.340862 0.0159523 11.4929 10.6125
178 1 Ar 5.45387 6.83035 1.67954 -1.59384 -1.78 0.199399 6.33664 2.59841 -4.56689
620 1 Ar 4.65342 6.85729 0.931718 -0.416507 0.29124 -0.169205 5.99691 8.51348 -2.90499
3817 1 Ar 6.17653 6.005 1.07727 -0.745409 -1.41234 0.276712 -10.5769 -7.6039 -19.3385
3811 1 Ar 4.5866 6.27185 16.6521 -0.868221 -0.544138 -1.08552 -7.30346 9.60731 7.00848
618 1 Ar 7.9288 6.75513 1.37804 1.52988 -0.91008 -0.240109 1.25511 -0.159983 2.43052
3774 1 Ar 5.91821 7.03576 0.782833 -1.19144 0.0364409 0.786236 -3.91147 -6.69703 -19.6211
3779 1 Ar 6.96497 7.106 0.777934 -0.721304 -1.31406 -0.414039 11.23 21.6569 19.6977
3780 1 Ar 7.26902 6.02322 0.920724 -0.544082 -1.41155 -0.38693 13.5574 16.6567 22.3272
141 1 Ar 7.74851 6.68155 0.137142 1.20947 -0.27456 -0.515742 13.1439 15.2253 24.3801
219 1 Ar 8.56692 6.23414 0.66236 -0.520236 0.160604 -0.735284 -0.960495 3.8275 -13.5475
941 1 Ar 9.05787 7.93107 1.65236 -0.489038 0.868464 -1.43393 -3.05424 4.27692 0.237568
3384 1 Ar 9.28374 7.51511 16.3739 0.0864227 -0.493296 0.798846 -1.79483 9.94977 -11.6139
3785 1 Ar 9.08281 7.2214 0.636712 0.446153 0.195562 0.382482 -10.986 12.1927 14.2517
545 1 Ar 9.98401 6.57117 1.02282 1.0799 -1.63205 0.382564 -1.65838 -2.24626 7.58245
187 1 Ar 12.0175 6.55199 0.569272 -0.133152 -2.24453 -0.415333 37.6012 24.8591 2.18685
950 1 Ar 11.8626 5.80795 1.27293 -0.202347 -0.677609 0.221145 -35.8447 0.368997 40.8257
192 1 Ar 11.444 7.1207 1.91189 1.55737 0.329661 -0.293977 -13.2285 -9.34041 -19.2105
596 1 Ar 14.0909 6.2588 1.94264 -2.1948 1.52335 -1.25984 -9.54385 -25.1874 20.36
190 1 Ar 13.5562 6.55459 0.975624 2.8074 -0.231067 -0.717817 -5.90219 1.91 -7.4955
595 1 Ar 13.0803 7.51147 0.895368 -0.25118 -1.14864 0.190829 -3.65266 10.3368 -8.75352
193 1 Ar 14.3409 7.59293 0.71514 -0.107633 0.492275 -0.31234 -26.8501 15.2739 0.186819
554 1 Ar 14.4251 6.53411 0.39209 -1.65033 0.844183 1.09957 30.4549 -7.44144 7.52705
518 1 Ar 15.9743 6.43109 0.630141 0.959937 -0.571262 0.398919 -21.7398 -54.9466 38.8403
598 1 Ar 16.3863 7.11468 0.121962 0.611524 -0.428875 -2.14543 21.6144 29.7808 -28.3033
158 1 Ar 16.3353 7.96009 0.937726 1.31144 -1.20731 0.62355 0.37245 -4.57569 -5.78273
922 1 Ar 0.0169457 6.97159 1.43265 0.723624 -0.506104 0.408679 4.47773 -0.221226 -17.6501
160 1 Ar 16.2634 6.80572 15.7571 -1.015 -0.0794266 1.10489 -1.08431 2.77015 5.88101
205 1 Ar 1.30724 8.84144 16.6441 -0.713998 0.00484617 -0.872885 16.1014 20.7717 4.39433
608 1 Ar 1.00074 9.47186 0.600164 0.717444 1.64459 -0.0792909 18.1453 -13.862 -6.7481
201 1 Ar 0.484163 8.48829 0.441818 0.892444 0.219202 0.162682 34.7374 -6.70517 4.69553
208 1 Ar 0.202691 9.75271 16.4653 -0.583679 0.984432 0.392432 -24.1029 -11.3465 24.6624
568 1 Ar 0.532807 7.98165 1.33547 -0.388905 -0.931902 0.260488 -13.7393 7.47126 18.1301
207 1 Ar 1.50824 8.376 1.05376 -0.507192 -0.976912 0.193387 3.0456 1.10609 -4.05298
167 1 Ar 1.63696 7.72213 0.117992 0.493868 -0.95979 0.211354 19.7544 1.95653 15.609
243 1 Ar 3.24684 8.66268 1.01132 0.939821 -0.03137 0.675469 8.39916 5.82837 15.7357
213 1 Ar 3.13983 7.95805 1.95404 1.0641 -0.321947 -0.289061 2.21895 -2.64717 -0.234368
1010 1 Ar 2.53868 7.60502 1.01283 0.472485 0.647591 1.46785 2.71137 6.86873 5.17499
216 1 Ar 3.81757 8.38999 16.5339 0.570785 0.22494 -0.128468 -2.18839 3.03968 6.83552
3016 1 Ar 3.89369 7.83548 1.08045 -0.592578 -0.607863 0.672382 2.25637 -7.91493 -1.01032
653 1 Ar 4.96603 8.01279 1.24631 0.479298 1.17892 1.59388 -4.27617 -2.49451 -7.1864
175 1 Ar 5.91186 8.8554 0.929021 0.553478 0.520445 -0.82905 -18.5914 16.7807 33.1543
651 1 Ar 6.21292 8.05752 0.399988 -0.127261 0.166823 -0.966899 11.7681 -18.6321 -20.4271
297 1 Ar 6.00073 7.85729 1.41044 -0.754687 1.241 -0.212688 8.63102 2.49911 18.4915
3819 1 Ar 7.31947 8.04219 0.283295 -1.29893 0.603354 -0.582925 5.94203 2.69254 -7.20869
224 1 Ar 8.08162 7.76471 1.14018 -0.676583 0.193314 -0.217982 -1.45684 0.756251 -11.9533
3821 1 Ar 8.41246 7.99189 0.0178035 -0.583869 1.36318 0.738113 -4.46535 -6.80058 17.3525
184 1 Ar 8.73907 8.66444 0.824082 0.718081 0.151655 -0.737332 7.65896 -2.65808 12.7764
663 1 Ar 8.8954 8.37108 2.8523 -0.0151212 -0.920007 0.714417 22.4514 -0.19774 -17.1496
586 1 Ar 10.0678 7.86664 1.09066 0.436376 0.284661 -1.49027 -4.90472 -6.11498 -10.4833
625 1 Ar 9.83504 9.01581 0.976576 1.76039 0.0846269 0.0524159 -15.8294 9.11759 9.73083
3787 1 Ar 9.41734 8.6715 16.7513 1.39821 0.536694 -0.924048 9.24945 -22.3745 -5.60573
3836 1 Ar 11.0529 6.59674 0.722446 0.330067 0.227196 -1.03843 -33.3235 -4.9752 8.37538
3796 1 Ar 11.8969 9.19248 0.768794 -0.154557 -0.640639 1.24261 3.79242 -14.276 -6.08017
669 1 Ar 10.6315 8.59363 0.511844 -0.870834 0.31681 1.48005 18.3246 -4.29048 -11.2486
3791 1 Ar 11.6874 8.65273 16.6065 0.0867454 0.952996 -0.369593 -4.68832 0.386229 -0.141547
195 1 Ar 12.7582 8.51816 0.298489 0.0814877 -0.411631 2.50897 -10.809 -1.07857 13.6951
3790 1 Ar 15.2747 7.22041 0.535923 -1.44089 -0.0457114 0.0964187 9.48578 5.19843 -14.4531
594 1 Ar 14.5415 8.03866 1.89656 0.508028 -0.947303 0.1916 -3.51203 -3.94045 -5.19545
197 1 Ar 13.6981 8.36161 1.37099 1.51763 -0.00153725 -0.646367 -7.84724 1.93496 -7.98595
3798 1 Ar 15.5292 8.50887 1.38376 0.762612 2.13574 -0.303106 5.22486 -3.10843 13.3389
597 1 Ar 15.6226 6.9885 1.49354 -0.371709 1.06042 2.02827 20.8508 -15.4389 -6.51818
164 1 Ar 0.369644 9.10697 1.51282 0.136244 0.180913 -0.635386 -19.4871 -11.5557 -24.7542
238 1 Ar 16.697 8.01122 16.5504 1.34188 0.466326 -0.817724 5.91693 12.2325 -12.0047
279 1 Ar 0.664949 10.6932 0.314553 -1.00847 0.607771 -0.270532 2.03954 -3.58586 -11.2944
612 1 Ar 2.33824 9.61942 1.10959 0.602857 0.864242 0.0440286 5.23109 -8.95409 -12.8774
212 1 Ar 1.66371 10.3403 0.52553 -0.0766213 0.370611 1.38142 6.98177 2.92144 0.931062
3812 1 Ar 3.24622 9.48426 0.331366 -0.572613 0.331557 -1.68607 -0.579694 5.60927 8.02601
647 1 Ar 2.56443 10.864 1.17548 -0.444938 -0.575172 0.114013 5.10322 -14.4263 -7.03525
649 1 Ar 3.9082 9.69493 1.12995 0.0956481 1.37338 0.308177 5.68071 -4.00767 4.00613
3816 1 Ar 4.28276 9.88869 0.0247585 0.793856 -0.321865 -0.0161751 -9.55973 -4.72473 7.64113
3856 1 Ar 4.66486 10.8537 0.401275 -0.47517 -0.592648 0.21238 -6.51595 -21.8717 25.9373
655 1 Ar 6.3896 10.0121 0.663923 1.47152 -2.54671 0.137498 -17.233 1.80513 -19.5049
253 1 Ar 6.70292 9.35877 1.49882 0.344766 -0.389158 -2.10903 1.35722 -1.11544 7.84222
217 1 Ar 5.0531 9.78005 0.809906 0.595452 -0.376708 -2.04129 -3.20677 -1.85295 14.0692
3815 1 Ar 6.77938 9.06916 0.411081 0.559626 0.654473 0.0351498 -15.8243 -14.0221 2.92477
218 1 Ar 7.02335 8.4337 1.22078 1.79611 -0.15829 -0.913162 -0.874558 -19.0306 4.82246
264 1 Ar 6.50998 10.3473 1.61345 0.69798 0.460882 -0.128442 22.7613 22.0391 19.4713
222 1 Ar 9.16915 9.59791 0.240773 0.460456 -1.46938 -0.57827 17.2344 25.8166 20.4464
223 1 Ar 7.75007 9.06844 0.752516 1.58036 -0.49612 0.892754 2.74135 -2.34437 16.6999
665 1 Ar 8.65385 9.87612 1.22876 0.442488 1.05594 -1.11825 -3.78731 -3.3573 -22.0119
3784 1 Ar 8.35675 9.08798 16.7349 -0.470226 0.533898 0.524039 -1.01142 -9.99361 -21.853
582 1 Ar 10.2724 9.61158 0.00087242 -0.786587 -1.20934 -0.59527 -7.65143 -2.64936 -0.0940509
626 1 Ar 9.68041 10.2046 1.07215 0.385853 -0.737258 -0.355525 4.1713 -0.601951 -0.842214
228 1 Ar 8.40188 10.1304 16.5742 -1.18668 -0.352951 -1.20752 -14.7912 4.16146 -4.48713
672 1 Ar 10.8615 9.49777 1.02704 1.12837 0.687642 0.7554 -5.31804 -6.04691 2.96488
996 1 Ar 11.7271 10.155 1.05956 -1.4676 0.691027 1.32975 10.8529 31.0167 -16.7774
227 1 Ar 11.2729 9.95029 0.107835 -0.863179 -0.814136 0.105062 5.07617 2.27283 7.54776
636 1 Ar 12.6924 8.92716 1.477 -0.557359 -0.97226 1.39665 2.02967 -5.97027 -15.4603
237 1 Ar 14.6731 8.64177 0.823833 0.902893 -0.432964 0.832637 -15.4489 2.13087 -3.19948
230 1 Ar 12.41 9.45891 16.5558 -0.667796 0.675721 -1.39999 5.57357 0.654793 4.6929
3803 1 Ar 15.5748 8.39913 0.233306 -0.145292 0.0755298 -0.502217 1.68683 -14.6031 -3.13402
194 1 Ar 13.7845 9.67706 1.37338 -0.265212 -1.01025 1.40502 -20.4205 6.99527 -26.8188
199 1 Ar 15.9187 9.48965 1.11104 0.712263 -0.57241 -0.996042 -1.98319 6.87465 5.00248
3795 1 Ar 15.2397 10.2843 0.7474 0.106756 0.468451 0.275421 6.14382 6.81885 4.36649
717 1 Ar 0.15323 9.93226 0.83446 0.604487 -1.39199 -1.39731 -30.8209 1.73946 -6.94682
687 1 Ar 0.612087 11.1267 1.28153 -0.597502 -0.0749296 -0.655787 -6.24758 9.82627 0.489145
248 1 Ar 0.551767 12.2716 2.09255 1.78849 -0.404371 -1.46903 -34.289 16.4263 -14.629
245 1 Ar 1.50741 11.425 0.564229 0.975836 0.0571244 0.182287 1.08952 4.10097 1.53605
287 1 Ar 2.38557 11.8655 1.40387 0.408943 0.0361483 1.0047 6.82166 9.46963 3.52593
331 1 Ar 2.67957 10.7728 16.7591 -0.940707 -1.43199 0.296875 1.28327 0.234212 15.892
246 1 Ar 2.51364 11.8208 16.7564 -0.213752 -0.95675 -0.860567 -6.39436 3.14416 0.426217
1090 1 Ar 3.79349 12.6459 1.55289 0.00108309 -0.737172 -1.03186 -4.14262 -9.08653 0.914715
291 1 Ar 3.58738 10.575 0.605093 0.613606 -0.291897 1.47739 -0.470656 5.30187 -5.15178
1056 1 Ar 3.70442 11.5966 1.82524 -0.308437 -0.225386 0.311587 4.56385 -11.3283 2.14095
1456 1 Ar 4.60149 12.5955 0.812819 -0.0731427 0.0946877 -1.08814 6.37768 -1.32678 -4.55564
696 1 Ar 3.86144 11.8274 0.804196 -1.04073 -0.736856 -0.350018 -1.084 -6.532 -10.5362
1089 1 Ar 4.80624 11.7527 1.5009 -0.813001 0.390401 0.0751678 4.18319 -2.47721 -2.95873
250 1 Ar 5.66263 11.738 0.646353 -0.722011 -0.00823673 1.06867 15.3309 -0.727836 -2.55493
3895 1 Ar 5.70072 10.8258 1.09381 -0.345005 -0.0859982 -0.0684998 -10.627 -26.0984 -14.7212
257 1 Ar 7.55653 12.0329 0.966666 0.345809 0.232784 0.706931 -16.2346 -4.96992 36.7082
656 1 Ar 7.28652 10.9838 2.14038 0.489212 0.739784 0.81564 -24.6306 -2.52502 -5.7966
304 1 Ar 6.5677 12.1719 1.59915 -0.0352758 -0.215631 -0.0406509 -6.81478 -6.96532 6.60198
3900 1 Ar 6.66922 12.605 0.546409 1.03661 1.10653 -0.00622663 -5.57154 0.349783 -9.66021
668 1 Ar 8.87437 10.7344 0.496326 0.0932264 0.320186 -0.650218 1.24039 -2.99757 -2.77452
3864 1 Ar 9.05226 12.0796 1.75397 2.53612 0.196258 -0.409611 12.5887 10.8872 -19.5061
267 1 Ar 10.3978 10.799 0.159602 -0.743005 -0.534765 0.144043 -0.487152 -9.52867 0.806641
666 1 Ar 10.7325 10.5038 1.28202 -0.271423 -0.438768 -0.0713149 -3.59823 7.13805 0.76771
232 1 Ar 9.9972 11.5205 0.964192 0.263886 0.540069 -1.05175 -10.0345 -12.094 -37.0176
309 1 Ar 11.0227 11.5208 1.35711 -0.820314 -1.02364 1.01602 10.4723 8.49581 1.6482
3866 1 Ar 10.6011 11.8491 0.151428 -0.416879 -2.24031 1.20086 8.49908 10.1854 0.0709058
270 1 Ar 12.3401 11.0333 1.18403 1.3142 -0.370064 -0.0156183 26.581 2.51457 14.5011
3830 1 Ar 11.8409 11.1084 0.347049 -0.893951 0.389435 -1.36403 -22.5414 -1.75168 -30.7273
3949 1 Ar 12.9191 11.439 0.330836 0.0130079 -0.636467 -0.143954 -3.10654 3.69572 0.686858
273 1 Ar 12.906 10.0414 0.71262 -0.342913 0.134089 -0.869932 -20.2782 -23.693 -4.90783
3831 1 Ar 13.7204 9.46727 0.136993 -0.100135 -0.371697 1.16631 -6.98547 -8.35782 10.8332
315 1 Ar 15.3837 11.3241 1.16469 0.169868 0.000422783 -0.817299 1.46806 1.46798 -0.445989
3916 1 Ar 13.7998 11.0824 16.6176 0.389779 0.784625 0.563439 10.7723 43.6084 15.8639
317 1 Ar 15.7307 12.6237 1.1303 1.01726 1.28673 -0.965189 0.264958 -3.07536 20.7146
670 1 Ar 13.9145 11.636 0.859738 1.11718 -0.236652 0.803487 7.04377 2.74187 9.86662
319 1 Ar 16.3937 10.9002 0.778054 -0.794523 1.32745 -0.250961 -0.447002 -2.62554 -3.11364
718 1 Ar 16.4853 11.7542 1.54694 -0.270468 0.311202 0.336637 -1.63994 -0.680127 3.47281
277 1 Ar 15.8959 10.0224 16.699 0.898676 1.06435 1.59729 25.5829 14.1475 7.99489
282 1 Ar 0.663145 13.549 0.750123 0.0227507 1.39002 -0.8124 -2.78223 -10.2994 -1.50583
1171 1 Ar 1.18897 14.0354 1.52697 -1.55091 -0.792747 0.263426 6.26362 9.27963 4.92107
328 1 Ar 0.101429 14.0101 16.5926 -1.95809 0.288317 0.0171429 -6.28718 0.193822 0.93373
725 1 Ar 1.7604 13.1044 1.08401 1.07789 -1.00957 -0.570947 -1.06043 7.13014 0.0321461
732 1 Ar 1.31901 12.9453 2.10559 -0.268013 1.45105 1.24537 19.7272 10.9483 2.49678
692 1 Ar 1.01547 12.5913 0.483173 0.440648 1.13762 0.0131935 3.54731 2.79084 23.0579
249 1 Ar 2.99833 12.5699 0.590436 1.52109 0.54924 -0.473204 -0.20998 -5.81822 3.24486
690 1 Ar 3.94935 13.6547 1.45637 0.961188 1.4447 -1.27697 20.406 -9.74075 -30.2675
332 1 Ar 5.02827 13.5614 1.02963 0.339586 -0.040822 0.487876 -7.03019 12.5731 5.59134
686 1 Ar 3.05982 13.9061 16.5635 -0.207053 -0.244317 -0.866809 3.18752 -2.37245 -1.24992
729 1 Ar 3.84215 13.2628 0.429629 0.64868 -0.183867 1.08732 5.32892 2.80207 -5.58547
295 1 Ar 7.80766 12.8602 0.497899 0.644967 -1.88934 -0.865238 -16.1052 52.9531 -9.89333
700 1 Ar 6.37917 13.5698 1.483 -0.508263 0.674271 0.546394 15.847 -9.67332 -4.64265
339 1 Ar 7.19342 12.9408 1.388 -0.813727 -0.0348615 0.533571 0.567049 19.1832 -6.09729
302 1 Ar 8.0883 13.7445 1.24341 0.219606 -0.481422 1.12403 -3.83224 -0.866628 -12.0006
301 1 Ar 8.00817 12.9182 1.95487 0.280504 0.254673 1.06457 37.7585 0.94583 -0.387206
707 1 Ar 9.72024 12.4556 0.486394 0.995083 0.191236 0.954009 -4.6096 6.15844 -3.75993
3903 1 Ar 9.12135 13.4079 1.7068 0.264996 -0.345945 -0.523828 3.02477 -3.22739 4.95242
308 1 Ar 10.3485 13.5613 0.324552 -0.680785 0.41549 0.115559 -0.420333 -5.15854 -8.09906
662 1 Ar 8.65072 12.7911 0.977665 -0.487592 -0.351313 -0.486149 26.7554 0.68114 39.8652
705 1 Ar 10.6408 12.5552 1.04509 0.863871 0.514944 -0.87453 1.26442 -2.21739 3.56348
385 1 Ar 11.4271 12.9167 0.298341 -0.0690407 0.382883 -0.289517 -0.412119 -4.00395 3.54409
351 1 Ar 11.9685 12.0709 0.899761 1.1842 -0.869216 0.657351 9.04025 -31.4464 -33.974
310 1 Ar 12.6786 12.6619 16.5787 0.704017 -0.335173 -0.159447 4.57892 -13.1518 1.66266
360 1 Ar 13.0103 11.8707 1.64798 -0.731122 -0.293782 -0.744933 -25.3582 7.12126 -11.8684
354 1 Ar 12.8799 12.5565 0.833434 0.623279 -0.560634 -0.643621 -3.81512 -3.92016 -8.90461
391 1 Ar 13.525 12.7718 1.59502 -0.751213 -0.320687 -0.882344 -4.07964 21.669 33.5183
3884 1 Ar 14.4833 12.3279 1.48814 1.58161 -1.53166 -1.6758 14.9637 -19.8725 -31.6331
3959 1 Ar 13.9383 12.8323 0.703425 -0.00748519 0.966758 0.263116 45.5853 -10.9052 -7.93218
684 1 Ar 14.5435 13.3015 1.56382 -0.328249 -0.161197 0.432528 2.24965 33.8341 1.70938
321 1 Ar 0.0145461 12.7484 1.04885 0.203135 -0.988416 -1.08699 1.47988 -4.96627 1.11901
318 1 Ar 16.1793 11.9351 0.509178 1.70288 -1.19466 0.262949 3.05401 -1.23521 -11.1489
244 1 Ar 16.0116 12.3522 2.51894 -0.816825 0.404617 -0.642075 4.32777 10.0617 0.0685935
3924 1 Ar 16.2127 13.1589 0.15368 0.985705 0.30772 0.509823 -14.856 0.808927 18.3059
368 1 Ar 1.84502 14.8132 0.538383 0.483336 -1.46425 0.531152 -13.4164 16.6721 -9.61229
398 1 Ar 16.352 15.092 0.379244 1.38532 0.125835 1.76712 -19.6822 -1.04704 19.1704
367 1 Ar 2.18929 14.2675 1.32297 -0.0734549 0.23746 -0.477669 11.0614 -1.3466 -5.18383
726 1 Ar 1.17624 13.8602 16.6881 0.356042 0.337676 0.351449 -7.47209 2.76826 -15.3981
336 1 Ar 4.13822 14.7322 1.24965 0.070896 0.0580458 -0.272315 11.8957 7.26222 -4.0656
762 1 Ar 2.94049 14.8988 0.582747 0.646699 -0.859998 0.793771 -19.9607 -2.3116 18.7827
770 1 Ar 3.20982 14.3105 1.58754 1.24586 -1.55707 0.117563 -18.3523 -10.1576 -2.46788
335 1 Ar 5.54399 13.8807 1.96483 -0.0600229 -2.17563 -0.269757 4.87943 8.11559 5.96839
734 1 Ar 5.94326 16.3671 0.893123 -0.370887 -0.825179 1.31946 -13.5576 -8.1022 -4.84242
735 1 Ar 4.5414 14.2121 2.05726 -1.12777 -1.38206 0.111107 12.4137 4.28938 16.2555
3575 1 Ar 5.285 14.72 1.30586 0.737952 0.186509 -0.571874 -16.5909 -0.267351 18.8779
733 1 Ar 6.87619 14.602 1.15873 -0.527726 -0.64122 -0.909798 -7.32266 -17.5718 -13.7456
1060 1 Ar 5.97198 15.6226 1.74701 -0.126004 -0.0412332 0.75911 -2.60024 -2.11603 0.41142
740 1 Ar 5.97532 15.0884 0.64441 -0.0484089 -0.991153 0.778903 4.71336 41.2753 4.02067
1137 1 Ar 7.77419 14.9931 2.47406 0.726037 0.60852 0.759943 -7.76989 10.4621 19.8252
747 1 Ar 9.04827 14.3611 1.25732 1.89999 0.732003 0.305328 -22.0896 14.1877 39.0613
337 1 Ar 7.81909 14.8391 1.49193 -1.04002 -0.172804 0.957477 8.02212 -2.26707 -16.3397
266 1 Ar 9.04181 13.6913 0.508332 1.06395 -0.546458 0.783874 14.0906 -27.6412 9.57134
305 1 Ar 10.0002 14.0767 1.17522 -0.873802 -0.192447 0.532357 21.1262 -8.15222 3.02803
3951 1 Ar 11.2457 14.5334 0.80517 -0.562033 -0.46685 -0.012835 5.29982 8.33279 -15.0873
345 1 Ar 11.3752 15.6853 1.2055 -0.5599 -1.21329 0.0344642 5.53152 -19.4242 24.7948
350 1 Ar 12.1265 13.4591 0.939561 0.111708 1.0672 -0.898638 4.42225 -8.52602 5.2152
749 1 Ar 11.0684 13.5627 1.16214 -0.384927 -0.732167 -2.37333 10.0385 -1.58513 -7.01656
348 1 Ar 12.3023 15.3434 0.54284 -0.100312 -0.612663 0.736509 -1.73331 5.82786 6.44795
393 1 Ar 13.748 14.057 1.49329 1.27369 -0.245499 0.606353 -17.9939 -6.99976 -11.4474
39 1 Ar 14.2288 13.8875 0.566135 -1.59473 -2.26125 -0.834728 21.5519 -33.0505 -20.7131
357 1 Ar 15.4172 13.5804 0.858147 -0.253457 -0.662235 0.58514 -7.96149 2.78309 18.6636
758 1 Ar 15.9513 14.4052 1.25155 -0.586172 0.410464 -0.619076 5.35715 5.12148 0.176184
722 1 Ar 15.7251 14.1769 0.108749 -0.728546 0.27056 -0.913427 11.4818 18.3193 -11.5029
325 1 Ar 0.314453 14.4916 0.961005 -0.532072 -0.237243 1.15624 -1.87249 5.70567 0.511327
364 1 Ar 1.41337 15.9537 0.274302 0.0143597 0.98236 -1.65864 0.995217 29.6933 35.2918
3607 1 Ar 1.77026 16.3424 1.524 0.343435 0.295788 -0.225745 -25.1768 35.626 13.4924
361 1 Ar 1.01085 15.4383 1.16778 0.00630917 0.588023 1.25587 3.56256 -0.848142 1.19493
409 1 Ar 2.59406 15.8026 16.7636 -0.112944 0.927231 -0.562032 -18.5295 4.91154 -2.6878