ITEM: TIMESTEP
6000
ITEM: NUMBER OF ATOMS
4000
ITEM: BOX BOUNDS pp pp pp
0.0000000000000000e+00 1.6795961913825074e+01
0.0000000000000000e+00 1.6795961913825074e+01
0.0000000000000000e+00 1.6795961913825074e+01
ITEM: ATOMS id type element x y z vx vy vz fx fy fz
798 1 Ar 1.41512 16.7368 0.960656 1.20941 0.469245 0.198071 -11.0751 8.44587 1.60006
3602 1 Ar 0.120394 1.10052 16.6852 0.660774 0.666962 -0.488039 -4.25963 18.0887 -32.7979
761 1 Ar 2.14469 0.24582 0.258986 -0.262166 -1.29711 0.571863 13.4449 7.37427 12.3374
49 1 Ar 2.68308 16.2525 0.805848 -0.79284 0.0791091 -0.602543 -3.62813 -4.44057 0.435938
457 1 Ar 4.94184 1.46407 0.284837 0.584408 1.33612 2.24806 -6.64261 -2.20503 7.80029
16 1 Ar 3.83538 0.649621 0.308104 0.620295 0.588423 -0.553153 16.9338 4.14081 -18.3977
414 1 Ar 5.70332 1.38723 16.4213 0.833889 1.17578 0.326197 12.6278 -8.58085 -15.0326
14 1 Ar 4.64476 0.0823745 0.966375 0.525705 0.413705 0.431088 -7.01863 -0.565887 -2.10867
64 1 Ar 7.25276 0.407357 1.35379 0.0469842 1.26685 0.944677 1.32613 -3.22863 -0.474263
95 1 Ar 6.88837 1.40367 1.6229 0.214744 0.728654 1.10944 -8.07691 -3.23561 -16.1427
460 1 Ar 5.7162 0.632877 0.454826 -1.27577 -0.61442 1.85241 -4.81888 0.369611 0.00435057
57 1 Ar 7.7632 1.12478 0.606938 2.23898 0.00749518 1.30013 11.9931 2.31532 15.6982
417 1 Ar 7.78142 15.8263 0.320349 -0.0549438 -0.12555 1.01727 -8.32247 -25.8756 -15.0177
379 1 Ar 8.30347 2.09513 0.637749 -0.544313 2.42455 -0.381467 -0.789215 1.97456 3.92148
24 1 Ar 8.911 1.06446 0.278965 0.56441 -0.567515 0.829627 -4.81772 -2.56853 -1.83228
461 1 Ar 8.64047 16.7246 0.435481 -0.667308 -0.637993 0.0188687 34.0606 -5.2611 0.413862
63 1 Ar 9.54115 0.938324 1.11784 1.00504 1.71687 0.314672 11.8788 7.53859 5.66425
25 1 Ar 10.2419 1.57223 0.226471 -0.186259 0.0210101 0.682215 -36.0925 -24.6837 -2.39445
505 1 Ar 10.5989 0.74182 0.795404 0.427273 1.82642 -1.93055 8.26402 0.547608 3.55386
31 1 Ar 12.3439 1.63636 0.556188 -0.179497 1.04297 0.568341 14.5169 -17.9103 23.1764
473 1 Ar 13.4654 1.38394 0.289069 -0.0622389 -0.0394684 -0.670199 -3.98307 4.61435 9.15136
3625 1 Ar 11.6227 0.415256 1.13136 0.638532 -0.961891 1.63818 4.53175 10.077 -9.01623
33 1 Ar 13.8387 0.74762 16.3271 0.833163 0.860338 -0.693782 -14.5451 -9.9656 7.37993
34 1 Ar 13.491 0.161363 0.464729 1.26136 0.585958 0.362132 9.37005 10.7136 -8.00287
79 1 Ar 14.6671 0.435926 0.580246 0.768074 0.500929 -1.51735 -20.1888 -3.86095 -22.5825
437 1 Ar 16.1773 1.16286 0.531927 0.828147 -0.0342477 -1.27405 -10.2607 -2.38263 17.4505
35 1 Ar 15.2079 1.36186 0.702152 0.960242 0.867366 0.472873 -17.8489 4.64989 7.23099
438 1 Ar 16.6219 0.0982726 0.183301 0.890563 0.156687 0.522191 -0.678755 4.46088 8.23842
434 1 Ar 0.340149 0.931084 0.935757 1.0875 -0.107089 1.91455 10.6927 4.82124 -10.5151
442 1 Ar 1.30254 2.64549 1.02353 0.37121 0.176785 -0.973153 -16.1893 -4.10023 -24.3488
481 1 Ar 1.02217 1.82422 0.0685578 -0.523043 1.1067 0.615955 15.1068 1.92093 15.3337
3688 1 Ar 0.376672 2.06275 16.1239 -0.488402 -0.408783 0.586066 -8.45958 5.6796 -10.1808
446 1 Ar 1.54078 1.14384 0.912447 -1.64292 0.0873157 -0.52795 -4.65496 -2.26528 -5.99413
489 1 Ar 3.07838 2.18273 0.719438 -0.0272279 1.0194 -0.660622 7.62785 2.08624 -3.78048
91 1 Ar 2.89384 1.17731 0.257107 -0.156717 -0.802074 0.258184 -10.4447 2.0157 10.148
487 1 Ar 2.47592 1.42617 1.32572 -0.498084 2.27933 -0.404662 15.1242 14.6659 -4.20329
46 1 Ar 2.03326 2.12608 0.571652 -0.0314054 -0.804439 0.851936 7.36275 -11.3245 -9.13093
410 1 Ar 3.93725 1.66029 0.066809 0.00765602 0.483429 0.965597 -10.4129 10.503 -1.64244
453 1 Ar 3.29224 2.34361 1.78194 0.130543 0.244689 -1.95692 3.89233 -13.7333 0.921034
413 1 Ar 4.12928 2.36856 1.10159 -0.184197 -0.759755 -1.33779 -5.7553 -0.332327 -26.1976
529 1 Ar 5.22271 2.43651 0.683472 0.367473 0.0430544 0.708152 -5.25653 -4.26818 2.1958
490 1 Ar 5.66475 2.44045 16.3403 -0.925442 -1.1187 -0.259653 7.98103 17.6585 18.4765
500 1 Ar 6.25901 2.0886 0.466118 0.146445 -0.0634936 -0.0368325 -10.3975 -20.2051 3.13581
456 1 Ar 6.75883 0.941441 0.377216 -0.771177 -2.04564 -1.18496 -5.51921 -0.702385 3.09958
3657 1 Ar 6.6349 2.98636 0.198607 0.388654 -1.93212 0.722693 4.4991 4.55493 -3.3369
54 1 Ar 8.27734 2.79421 1.43404 1.54562 0.0498796 -1.21515 -4.392 -6.5463 -1.38124
61 1 Ar 9.05765 3.482 0.643359 -0.59294 1.557 -0.159912 -12.2383 2.92639 -2.75364
97 1 Ar 8.3377 1.71569 16.4707 0.0569748 0.103779 0.344556 7.55622 4.85745 -4.26661
3659 1 Ar 7.23706 1.8767 16.7714 0.40497 -1.10756 1.4515 2.60593 -4.23765 4.35533
68 1 Ar 9.56733 2.41662 0.612457 -0.677797 -0.271122 0.212556 -2.34466 -3.97039 6.31399
107 1 Ar 9.73593 1.84474 15.9268 -0.802919 0.262092 -1.17204 11.9088 12.572 8.19016
27 1 Ar 11.0767 1.88913 16.5576 0.0424537 -0.308796 1.29521 20.1884 3.68348 7.13883
467 1 Ar 10.6216 2.41137 0.577139 1.42909 1.41842 -1.4902 20.6071 15.6843 -5.9273
466 1 Ar 11.4086 2.51547 1.27807 -0.36846 1.02815 0.5481 12.2007 16.7473 -0.621915
469 1 Ar 12.8316 0.77129 1.1597 -1.1489 0.0873524 0.0136083 -12.8406 3.71978 -11.0611
29 1 Ar 12.547 2.67819 1.06569 0.868557 -1.01172 -0.851071 -6.56014 4.79271 -0.750788
513 1 Ar 13.7318 2.92797 1.23307 0.050887 0.155411 0.490271 -16.1611 24.0612 12.0526
36 1 Ar 14.2528 2.14296 0.94007 0.636718 0.586439 1.51141 26.0122 -16.0052 -25.5164
71 1 Ar 13.2963 1.92736 1.26802 1.03626 0.916588 -0.533661 -7.38175 2.05055 -11.5726
74 1 Ar 15.396 1.10379 1.75565 1.73973 -0.383294 -0.151397 -3.4915 4.35769 -2.00558
441 1 Ar 16.6006 1.88526 1.42535 1.97379 -1.50515 -1.62817 -6.5923 -10.2669 11.9306
44 1 Ar 15.4667 2.4388 1.54344 0.688745 1.08278 -0.0536622 21.093 -3.39759 5.25598
525 1 Ar 0.834575 3.59846 0.654505 0.614036 1.36704 -1.60565 3.40992 17.9531 -2.95224
3724 1 Ar 0.728302 4.55138 16.701 -0.146112 0.320098 0.504061 -10.3401 -16.9695 -8.57867
50 1 Ar 3.40675 3.67766 16.3298 0.379633 -0.433108 1.36663 -1.20946 -0.282799 1.57195
486 1 Ar 1.83729 3.70443 0.856374 0.502679 0.0432709 -0.266099 14.9944 -17.4779 50.9498
565 1 Ar 2.81107 4.23142 0.353069 -1.457 -0.0944594 -0.402025 -14.515 6.05682 -18.657
48 1 Ar 2.58012 3.08982 0.213652 -1.29557 2.01103 -1.68048 6.29915 0.961426 4.67663
92 1 Ar 3.53266 3.24411 1.1593 1.36659 0.660948 -0.166562 -10.2345 -2.01929 -2.65301
893 1 Ar 2.83616 4.029 1.34168 -0.656139 -0.503815 0.345871 1.31684 -11.7834 5.80521
3691 1 Ar 3.32825 2.42315 16.3523 -0.617006 -0.397343 -1.01253 11.9787 17.3987 8.27008
90 1 Ar 6.15409 4.34367 0.744932 0.892512 -0.19397 -1.4892 4.64135 2.71312 0.0165705
3689 1 Ar 4.16678 3.25178 0.237359 0.376962 0.733736 0.642622 -12.7071 -13.5078 -4.68859
133 1 Ar 4.54486 3.52989 1.13583 -0.977881 -1.24446 -0.783407 9.87712 4.53767 23.1219
3692 1 Ar 5.73895 3.35387 0.675522 -0.103184 -0.785888 1.18725 1.57929 -2.7624 6.56156
136 1 Ar 7.07887 3.65824 0.965447 -0.314926 -1.64397 -0.534167 -9.71786 3.85389 -0.510373
535 1 Ar 5.53625 4.3372 1.91171 -1.01641 0.53114 -1.30434 -25.5756 0.675781 -30.6799
493 1 Ar 7.19798 2.30367 0.985096 -0.091588 -0.0744556 1.97797 5.67482 0.515885 1.79132
135 1 Ar 9.50488 4.64509 16.6213 2.73632 -0.180377 1.14422 0.645042 -7.88754 27.0391
494 1 Ar 8.98709 4.5558 0.806161 -1.04371 -0.720071 0.510228 -11.1681 -9.57944 3.72159
898 1 Ar 8.04872 3.76396 1.56176 -0.445793 -0.619918 -0.991228 -11.1309 5.98716 -9.254
94 1 Ar 9.38457 3.00658 1.51279 1.30478 0.117558 1.51582 -13.5422 4.6455 10.7061
102 1 Ar 10.0243 4.42772 0.978263 -0.459638 0.80105 -0.409174 0.56757 22.2516 -18.3108
3704 1 Ar 10.1086 3.46089 0.617846 -0.993857 -1.74209 1.56472 -12.4025 -11.6958 -3.10377
103 1 Ar 10.311 2.89583 16.513 -0.0787963 0.608731 -0.114068 -26.4439 -10.2426 -30.5988
112 1 Ar 10.9007 3.78428 1.21224 -0.400287 -0.579828 0.857206 13.77 -14.139 -8.46179
76 1 Ar 11.0636 3.2715 0.23916 -1.98962 0.216991 -0.304332 30.3886 15.728 4.20811
145 1 Ar 11.902 5.27191 0.21383 -0.860684 -0.197829 0.410676 -17.6291 15.5255 -9.64844
506 1 Ar 11.4128 4.65271 0.952914 0.192443 1.86293 1.29811 4.15004 13.9824 -29.2313
73 1 Ar 13.0845 3.51969 0.583143 -0.287328 -0.736767 0.771044 -13.3139 5.47637 4.1623
75 1 Ar 11.8606 3.6014 0.810934 -0.433003 0.193807 1.29146 14.7566 -7.02911 -6.97098
509 1 Ar 13.1776 3.79828 1.77075 -0.00892972 0.0846166 0.266763 3.64532 -2.75603 -5.47065
591 1 Ar 13.3677 3.2481 16.0071 0.453911 -1.03799 -0.468397 7.7925 9.03802 5.93817
553 1 Ar 14.8502 3.09028 1.01098 0.505275 0.689834 1.44237 -13.461 7.72779 -6.30138
114 1 Ar 14.233 3.89088 1.47687 0.390998 -0.433162 0.227112 4.3677 10.3395 -3.51438
475 1 Ar 14.4444 3.12663 2.11969 -0.263034 2.52612 -0.115984 1.87279 -24.7438 6.45021
402 1 Ar 0.0979799 2.03197 0.465858 -0.781821 -0.34614 2.25631 -10.0532 5.59472 -8.48187
120 1 Ar 16.6989 3.89642 0.228326 -0.510988 -1.61093 -0.270005 -1.40183 -2.11669 -2.37021
84 1 Ar 0.604019 2.85804 0.00549524 -0.941592 0.701901 0.768113 3.79425 -3.82517 -5.14159
444 1 Ar 15.3845 3.52615 1.94077 -0.221438 -1.94709 0.62362 21.4539 -21.553 -35.0568
3683 1 Ar 15.9015 3.16365 0.902408 -1.3962 -0.960687 0.0623727 16.6271 15.8885 0.468361
521 1 Ar 1.87766 3.95772 16.7367 -0.895689 -1.3536 0.569356 -6.20406 18.2674 -47.8328
124 1 Ar 0.24514 4.4997 1.08999 -0.360619 -0.361819 0.408658 -16.4811 9.37373 -10.7635
605 1 Ar 0.395034 6.48303 0.00375752 -1.43363 0.562621 -0.286017 0.0382098 2.77593 4.69288
82 1 Ar 1.59492 5.18529 16.3982 -1.18589 0.68518 0.228932 -24.7142 -0.352274 5.62407
163 1 Ar 1.33937 4.86148 0.62832 -0.150646 1.30854 0.884478 22.593 -4.91039 10.6888
128 1 Ar 2.5102 4.80574 16.2521 0.111913 0.186196 -1.15953 15.4794 -6.56903 -2.04178
526 1 Ar 2.61767 6.38914 16.5598 0.180118 -0.1264 -0.205842 -22.1194 -25.9708 -9.1789
129 1 Ar 3.79993 4.23876 0.563666 -0.169222 -1.27825 1.22902 16.1197 -4.09006 9.98719
3732 1 Ar 4.73137 4.76023 1.21612 -0.645844 -0.531245 0.4331 0.13159 -10.5186 8.1836
130 1 Ar 5.72353 5.24447 1.19759 -0.238925 0.0467857 0.457179 -14.1667 -13.1742 -0.650356
3296 1 Ar 5.55921 4.761 16.637 -0.979501 -0.724002 -1.09476 9.42766 5.94742 -3.84249
3775 1 Ar 4.37653 5.05447 0.218917 0.788681 0.94529 0.534053 3.56746 -5.30771 -21.3441
3735 1 Ar 6.62797 5.29452 1.66473 0.0168474 0.740387 0.389432 21.2555 30.7502 -16.3196
573 1 Ar 6.65659 5.4958 0.591128 -0.466712 1.75623 1.26092 -19.7638 -27.147 5.37754
538 1 Ar 7.36776 5.54577 16.6746 0.804625 0.180042 -1.39704 10.3471 0.854675 -20.4103
180 1 Ar 9.05484 5.23072 1.71052 0.690639 1.45961 0.290606 -8.01511 -23.797 10.4719
977 1 Ar 8.05622 5.59578 1.50061 -1.4875 0.557392 -0.587415 -5.04297 -3.62866 -1.255
539 1 Ar 8.35572 5.13453 0.164041 0.979046 0.0323908 -0.354399 6.28793 3.23299 -6.76044
544 1 Ar 9.49909 5.46381 0.811358 -0.538494 1.74137 0.871134 12.6676 10.8342 -8.70329
585 1 Ar 8.92109 6.26344 1.47878 0.818454 -0.453662 -0.291249 5.23128 8.4203 -28.1928
148 1 Ar 11.0175 5.8053 0.779896 -0.380159 -0.159609 -0.136965 1.58795 -3.00559 -4.77058
546 1 Ar 12.3708 4.33989 1.37416 0.562472 0.483209 -1.78454 -1.43281 10.0533 3.35528
147 1 Ar 12.6489 5.19191 16.0462 0.385626 -0.0799065 -0.840862 -33.0756 25.5861 6.67892
151 1 Ar 13.7705 4.62326 0.884277 0.956697 0.550308 0.165608 8.62091 7.71523 4.67709
511 1 Ar 12.1387 4.80499 2.42884 -1.06006 0.889267 0.245533 7.62614 3.09374 1.71333
156 1 Ar 13.3382 4.99631 1.73427 0.657975 -0.827612 0.533938 -10.6937 10.3183 5.67041
189 1 Ar 12.7987 4.98239 0.568105 -0.979926 -0.872971 -0.139266 10.9256 -4.79304 16.1045
191 1 Ar 13.4627 5.33497 16.6499 -0.66763 -1.1406 0.808882 11.6025 2.64081 -0.522091
559 1 Ar 14.3198 5.60083 0.938275 -0.174721 -1.17245 0.28115 -4.76538 -17.8012 -38.4843
159 1 Ar 15.426 5.19503 0.353323 0.0643932 -0.220879 0.548626 5.18546 10.9396 2.11956
117 1 Ar 15.1021 4.75892 1.35766 -0.504233 0.945701 -0.857038 -19.4571 -43.3015 -30.6439
200 1 Ar 0.163018 5.69737 1.12873 -0.339621 0.148026 0.163973 15.5898 21.3557 28.6318
563 1 Ar 1.12885 5.22344 1.61486 -0.251608 -0.588619 0.209976 -3.35586 14.868 7.11558
602 1 Ar 0.63597 7.51709 0.441121 -2.17799 0.602339 1.04537 -14.9383 -10.0897 3.7436
522 1 Ar 2.37078 5.40161 0.493302 1.10005 0.26004 -1.84574 -3.33631 2.04825 -8.57222
609 1 Ar 1.53051 7.32362 1.23406 -1.54854 0.142031 0.619468 -3.83702 -15.537 8.3745
566 1 Ar 3.22559 6.6366 0.511372 0.256964 -0.726012 0.150279 12.0715 7.54662 20.1199
126 1 Ar 2.1339 6.39183 0.965171 -0.0366005 0.563311 0.493553 3.07606 6.42276 2.31051
132 1 Ar 3.34753 5.40663 0.0110475 -1.3364 -0.853918 0.0433827 -4.75455 -0.793327 4.57528
170 1 Ar 3.14361 7.78058 0.201523 -1.19623 -0.191631 0.434347 12.6532 -21.1024 7.93003
3772 1 Ar 3.90059 5.42371 1.08818 -1.51717 -0.155952 0.181264 -8.2782 2.35066 3.65529
174 1 Ar 4.86425 5.74513 0.794378 -0.504414 0.867743 -0.353422 -18.3978 21.9059 35.6996
178 1 Ar 5.51113 6.75621 1.81451 -0.728218 -0.903361 1.38999 -45.9222 -18.9875 -6.66269
620 1 Ar 4.21732 6.77554 0.911104 0.0491231 0.546461 -0.96062 32.8342 -47.6856 -14.3522
3817 1 Ar 5.96726 6.21969 0.979461 -0.822407 -0.126081 -0.10996 -12.0625 12.9513 11.1861
3811 1 Ar 4.05527 6.18839 16.6636 -0.52435 -0.805671 0.328962 -13.2794 17.2232 19.0135
618 1 Ar 8.36384 7.13934 1.89021 0.520597 0.0897338 -0.166029 -11.9108 -8.99561 -4.86648
3774 1 Ar 5.10311 6.87277 0.108554 -0.110946 0.0738861 -0.780251 3.32861 -5.31855 -3.74
3779 1 Ar 6.32758 7.3527 0.79002 -0.671298 -0.0431538 0.639128 -9.09596 -0.204345 4.27815
3780 1 Ar 7.08226 6.27792 1.0703 0.0187537 0.444502 1.12594 5.97306 8.83225 13.5769
141 1 Ar 7.3575 7.19976 0.605079 -0.0183189 1.98106 0.879316 -9.81732 -12.5719 -7.29396
219 1 Ar 8.01777 6.12143 0.509449 1.28741 0.0769754 -0.269675 5.06114 8.08077 3.07183
941 1 Ar 8.95425 7.96168 1.88974 1.09311 2.11668 0.171771 7.68794 9.87952 4.55906
3384 1 Ar 9.42237 7.55081 15.4896 -0.110721 -0.502509 0.539306 -21.4497 -9.12324 -16.1822
3785 1 Ar 8.73168 7.14722 0.818718 0.124499 -0.201657 -0.0300982 8.89232 -13.9754 -0.651581
545 1 Ar 10.1737 6.12418 1.42994 0.460913 0.04941 1.69976 2.44828 3.12137 -12.3077
187 1 Ar 12.1867 6.44349 0.650657 2.02977 1.70528 -1.20056 -0.329114 -3.34962 4.4028
950 1 Ar 12.3998 5.65645 1.46935 -0.772982 -1.54275 -0.383549 -3.33772 -5.21968 2.65476
192 1 Ar 11.3059 6.59535 1.41742 -1.06391 0.012231 -1.08818 24.387 -7.60034 5.55229
596 1 Ar 14.053 5.98392 1.79877 0.786588 -0.127791 2.48099 9.83275 -6.51995 16.7273
190 1 Ar 13.2535 6.14834 1.05398 -0.868694 0.137607 -1.60949 -0.345275 -15.3146 6.99221
595 1 Ar 13.1382 7.14782 0.806706 -3.54002 -0.302891 -0.650942 -8.76313 13.5398 1.96291
193 1 Ar 14.1977 7.55872 0.635466 0.526281 -0.801855 0.4665 -3.76195 6.98811 14.1256
554 1 Ar 14.9376 6.20827 0.0198505 -1.3012 0.108326 0.609498 9.89809 7.18526 27.1021
518 1 Ar 16.0432 6.1594 0.616834 -1.11575 -0.630497 -0.780846 -2.37852 1.71701 -22.5488
598 1 Ar 0.0427627 7.2376 16.1989 1.91756 0.522028 -0.440156 8.26214 0.125223 11.694
158 1 Ar 16.3605 7.22892 0.386197 0.922625 -0.191343 0.156625 8.92879 4.76877 1.33327
922 1 Ar 0.0411141 6.81735 1.29081 1.20313 -0.0615888 -1.80556 8.9241 -2.37694 -14.1948
160 1 Ar 16.3476 6.71835 15.3805 0.6932 -0.732017 1.34724 -4.8187 -8.40304 -2.93227
205 1 Ar 1.13572 9.02262 16.3314 -0.278186 -1.08075 0.321243 -2.62368 7.01944 -9.64121
608 1 Ar 1.60985 9.33623 0.543852 1.08797 -0.800908 -0.313927 1.73714 -3.13832 7.40478
201 1 Ar 0.858494 8.55646 0.431697 -0.475597 0.203373 0.308121 -0.750349 -0.527519 10.9076
208 1 Ar 0.321774 9.89623 15.9208 -0.0946885 -0.406848 0.368081 -19.9122 -16.8546 0.829897
568 1 Ar 0.669277 7.98988 1.48962 1.25021 -0.453729 0.754966 -2.16201 1.3947 0.141693
207 1 Ar 1.85175 8.29985 1.04995 0.758655 0.0638562 1.28702 -1.23971 11.1619 2.39454
167 1 Ar 1.63395 7.54394 0.217641 -0.0106131 0.1008 1.78286 18.4108 3.24412 -14.9698
243 1 Ar 3.37395 8.64833 1.00481 -1.53788 -1.43906 0.455704 -8.80164 -40.4189 -35.1456
213 1 Ar 3.31723 7.69806 2.13398 -0.0543016 -0.291775 0.00741408 17.4075 14.4096 5.17481
1010 1 Ar 2.66531 7.5134 1.1867 -0.817461 0.740127 0.141393 1.71268 0.598583 -0.346543
216 1 Ar 4.59384 8.4273 0.197315 0.600394 -0.217768 -1.03763 -6.6788 2.75333 -3.33865
3016 1 Ar 3.84378 7.62344 1.16368 0.818201 -0.51365 2.03263 -18.8801 47.3087 8.10682
653 1 Ar 5.22198 7.3952 1.07192 1.01893 -0.808638 0.941308 -5.72685 13.3076 -8.06933
175 1 Ar 5.78185 9.51497 1.6046 1.25681 0.168503 0.732957 -24.7701 -8.36635 8.77351
651 1 Ar 5.63331 8.18377 0.196782 -1.25257 1.42251 0.240522 10.5858 0.960649 8.39243
297 1 Ar 5.83501 8.44851 1.3009 0.525437 -0.0291746 -0.114641 -2.65966 -7.91881 -9.50655
3819 1 Ar 6.82526 8.20322 0.232836 -0.491121 1.02336 -0.462958 4.01198 10.0797 4.01478
224 1 Ar 8.05479 7.89212 0.797223 -1.84639 -0.198211 0.00171122 0.29485 12.4252 9.36919
3821 1 Ar 8.91578 7.88796 16.6201 -0.642964 -0.619525 -1.18935 -2.65784 10.0749 20.1311
184 1 Ar 8.92557 8.4931 0.961594 -0.46667 -0.507754 -1.20895 8.23398 5.35058 -15.0397
663 1 Ar 7.91589 8.1398 2.56867 -1.18518 -1.67576 0.0495203 -0.0882676 -0.493526 2.00117
586 1 Ar 9.66946 7.68181 0.919504 -0.0396684 0.15209 -0.697661 5.17771 1.21638 1.88796
625 1 Ar 10.0366 8.7493 1.18986 -0.742322 0.204083 -1.09626 -0.00211831 -9.82576 3.94454
3787 1 Ar 9.67259 8.6602 0.167272 0.741263 0.946221 1.09699 36.9409 -27.6965 -2.98775
3836 1 Ar 10.5091 6.90132 0.83463 -0.190507 0.175973 0.724002 -7.66301 4.61969 -14.2541
3796 1 Ar 11.4229 8.96909 1.05892 -0.972778 0.78365 0.702138 18.3912 1.01545 6.0757
669 1 Ar 10.7732 8.67758 0.354224 1.07206 0.0481538 1.1499 -36.7266 -5.84432 -11.7314
3791 1 Ar 11.6085 8.4427 16.539 0.0590787 -0.645349 -0.700463 7.28698 11.1703 8.722
195 1 Ar 12.393 8.43201 0.597981 -0.974455 -0.300179 0.969073 0.28006 -4.2132 -1.9207
3790 1 Ar 15.34 7.11288 0.536381 0.117177 0.586087 0.0804066 -4.14377 3.85606 0.719675
594 1 Ar 14.6933 7.61614 1.54231 -0.172402 -0.34225 0.325495 7.9765 6.15777 13.5697
197 1 Ar 13.5185 8.15403 1.20578 -0.923027 -0.773933 -0.46094 4.09744 -9.2705 -11.7831
3798 1 Ar 15.396 8.30815 0.863363 -1.72434 -0.286849 0.780592 -9.15822 4.83047 28.0499
597 1 Ar 15.5938 6.89287 1.53807 0.21309 -0.911626 -0.664474 -12.6161 15.2595 -1.18791
164 1 Ar 0.200985 9.14616 1.56421 1.09188 -0.570521 -0.262607 8.737 -1.2976 -9.02265
238 1 Ar 16.7704 8.23795 16.6723 0.555872 1.02313 0.250907 1.40149 -11.7964 -5.87885
279 1 Ar 0.160095 10.6035 0.107315 1.28303 2.1142 0.153095 -0.642645 4.58141 -27.6564
612 1 Ar 2.63387 9.30938 1.20894 1.34431 -0.668667 0.478537 -17.249 11.4723 1.19494
212 1 Ar 1.16472 10.863 0.507229 0.96098 0.373145 1.85168 6.3639 -3.75475 6.19117
3812 1 Ar 3.56856 8.87451 16.7544 0.739401 -0.296977 -0.345742 13.0249 9.23928 8.84843
647 1 Ar 2.37494 10.4397 0.920582 -1.33235 -2.71836 0.417314 2.43506 -3.01184 -2.5272
649 1 Ar 3.70701 9.55426 1.23335 1.25914 0.362311 -1.17078 8.81857 27.5731 -6.00818
3816 1 Ar 4.41071 9.58742 0.422638 -0.284944 -0.0861368 0.328457 -5.56885 -3.24069 -3.62231
3856 1 Ar 3.87257 10.5914 0.677964 0.190793 1.69663 0.682152 -18.5374 -0.123916 -27.1026
655 1 Ar 6.19144 10.284 0.133547 1.25496 -0.101869 -0.957838 12.1293 -7.97595 0.644595
253 1 Ar 6.72378 9.8107 1.47385 0.0561888 0.200457 0.247561 32.7826 -16.0169 -1.28256
217 1 Ar 5.34719 10.0175 0.748915 -0.300894 -0.136341 -1.57276 -0.947395 -1.7932 9.28597
3815 1 Ar 6.24613 9.19418 0.555623 -1.87962 1.94004 -0.281603 2.12333 1.00554 0.780033
218 1 Ar 7.05226 8.67164 1.26807 -1.44459 1.29098 -1.06551 -6.38429 -6.46759 -12.3316
264 1 Ar 6.29085 10.7038 1.5428 -0.533266 0.182626 0.218644 4.44435 13.8236 -26.896
222 1 Ar 9.56365 9.54242 0.704538 -0.676618 -0.888361 0.644406 -4.74382 16.9808 3.19314
223 1 Ar 7.8899 8.8653 0.574813 -0.948539 0.666918 0.822761 -2.99807 -7.3405 -15.1098
665 1 Ar 8.50949 9.61272 0.899744 0.580456 -0.800815 -0.182724 2.3916 6.1853 7.79018
3784 1 Ar 8.83911 9.09828 16.7224 0.50451 0.109026 1.76155 -41.3982 4.79701 4.20851
582 1 Ar 10.3498 9.69072 16.7574 0.376828 -0.657425 -0.241479 -3.61869 -5.38667 -3.49965
626 1 Ar 10.0165 10.4529 1.30411 0.127322 -0.58122 0.0127498 -5.62717 -2.63834 13.7514
228 1 Ar 8.18951 10.16 16.4287 -1.09426 -1.19104 -0.447457 2.99215 -13.6816 25.4616
672 1 Ar 10.619 9.6078 1.04238 1.42002 -0.313817 -0.0348681 4.89691 15.0901 -8.91168
996 1 Ar 11.648 10.3072 1.06258 1.1901 0.841231 -1.2286 -13.0678 -8.9742 -2.02821
227 1 Ar 11.4024 9.44047 0.129585 0.278696 1.8567 0.696561 15.4146 24.6732 -10.6593
636 1 Ar 12.9097 8.95181 1.46752 0.62259 0.953473 0.345541 4.74018 10.6977 6.48524
237 1 Ar 14.4532 8.82834 0.74868 0.0499137 0.222193 -1.13749 -5.07415 2.93297 7.3086
230 1 Ar 12.5023 9.41072 16.3275 -0.774577 -0.123283 -0.544497 -6.3208 -22.0572 24.6964
3803 1 Ar 15.6443 8.05472 16.736 1.75564 -1.13846 -0.822789 10.8459 -13.4551 -14.3475
194 1 Ar 13.6545 9.54921 1.04482 -0.00551347 0.292412 -1.13848 5.58787 10.9078 -1.20467
199 1 Ar 16.3867 9.89817 0.965402 2.2609 -1.13923 -1.83131 -30.6448 24.7396 48.8108
3795 1 Ar 15.3507 10.1976 0.705793 0.0476006 -0.668831 0.0946138 4.32928 -5.88573 2.33389
717 1 Ar 0.463544 9.75392 0.55786 -1.09791 -0.0763606 -0.384473 42.1577 -29.3097 -15.8262
687 1 Ar 0.471854 11.4225 1.46604 1.58388 -0.260817 -0.143644 2.86838 -1.16727 -1.73244
248 1 Ar 0.275989 12.5948 1.80003 1.87364 -0.0458391 -0.0631604 3.67173 -12.6517 -10.3946
245 1 Ar 2.17042 11.5222 0.895919 -0.633005 -0.0586621 -1.18069 -6.06408 1.7262 -1.35971
287 1 Ar 1.91013 12.4948 1.67546 -0.0781153 -1.41621 1.70496 0.646831 -3.59608 -10.3301
331 1 Ar 2.13052 11.0097 16.7174 0.537406 0.728917 -0.570533 0.517736 -5.19313 -2.646
246 1 Ar 2.56877 12.0731 16.4058 -0.796514 2.08157 -0.889381 15.1109 7.01374 0.203653
1090 1 Ar 3.80203 12.6084 1.41976 0.823328 -0.744127 -0.245388 2.43117 30.9055 -22.8622
291 1 Ar 3.17781 9.93334 0.221334 -0.30599 0.229217 -0.407279 -5.04611 -14.223 12.047
1056 1 Ar 3.85076 11.4425 1.61329 -0.125167 -0.539969 0.773868 -9.91977 -7.30263 -16.8157
1456 1 Ar 4.3457 12.72 0.493613 0.409472 -0.384845 -0.408664 6.44215 -2.15496 5.04432
696 1 Ar 4.38307 11.5297 0.542321 -1.58553 0.277218 -1.64096 -8.53466 -8.60578 15.9757
1089 1 Ar 5.13546 12.1326 0.926252 -0.209744 0.14999 -1.61714 3.51576 13.605 1.92455
250 1 Ar 6.01651 11.7522 0.263061 0.707457 -0.232244 -0.593182 -9.56297 2.31657 14.8871
3895 1 Ar 5.36769 11.1317 0.995334 0.35047 -0.116701 -0.809714 2.83307 -3.30261 6.92532
257 1 Ar 7.74449 11.9793 1.18294 0.399027 2.00988 0.418347 4.05945 18.2607 -2.64653
656 1 Ar 7.07446 11.456 2.45995 -0.992982 -0.0348268 1.06726 9.03163 5.11507 3.02145
304 1 Ar 6.87495 12.3484 1.81937 1.27206 0.890952 -0.652002 3.56973 0.834626 -3.51553
3900 1 Ar 7.2125 12.75 0.546533 -1.23654 -0.521892 -0.779111 10.3591 -7.6678 2.05935
668 1 Ar 9.04677 10.5256 0.616695 -0.843966 -1.12217 1.07642 -33.7507 -14.1355 3.82795
3864 1 Ar 10.5991 11.5003 2.25487 -2.0743 -0.243516 0.121671 -15.2329 4.00174 -16.9047
267 1 Ar 10.9676 10.5663 0.170755 -0.14683 1.1934 -0.690034 22.1257 1.01763 0.320087
666 1 Ar 10.9023 10.4667 1.93429 1.40683 -0.378152 -0.245055 5.39179 -0.365352 -11.807
232 1 Ar 10.1741 11.5289 1.21298 0.335176 0.216509 -0.295108 -65.4651 20.3671 5.30973
309 1 Ar 11.0611 11.2394 1.06803 0.699296 0.186098 -1.64667 60.6195 -17.3777 -8.01447
3866 1 Ar 11.6305 11.8194 0.223161 -0.373736 0.622379 0.528817 -37.3558 6.56895 13.8274
270 1 Ar 12.3729 11.0318 0.809654 -0.330665 0.504998 -0.155105 0.43485 8.69729 27.6962
3830 1 Ar 12.1316 10.382 0.0185461 0.376038 -1.20258 -0.706187 -22.3045 -10.2014 -5.14431
3949 1 Ar 13.407 11.6585 0.462367 -0.00147694 -1.26594 0.162188 7.60123 0.654917 3.99578
273 1 Ar 12.4685 9.51572 0.683022 0.108665 0.594457 -0.875864 -10.8 -15.2549 -30.9707
3831 1 Ar 13.3354 9.00571 0.110437 2.16491 -1.25918 -0.617911 2.94327 -0.82179 4.83131
315 1 Ar 15.4199 11.2127 1.24574 -0.108367 -0.421892 -1.65167 15.8738 -10.5166 -47.9043
3916 1 Ar 13.8508 10.8635 16.3964 0.148587 -0.0933308 -0.19227 -14.6579 9.42459 6.89217
317 1 Ar 15.9774 12.7729 1.13154 0.864835 0.810279 -0.820245 9.87636 31.596 8.72644
670 1 Ar 14.4099 11.5296 1.26342 -0.783292 -0.845936 -0.160025 -6.08469 8.99106 -4.75381
319 1 Ar 16.4525 11.165 0.770306 1.33988 0.182963 -0.0934827 -7.56731 6.57636 6.57198
718 1 Ar 16.259 11.8293 1.57413 0.373639 0.933164 1.36907 -3.79707 12.1262 8.76394
277 1 Ar 16.1434 9.77282 0.0128235 -0.0856351 -0.058326 1.02116 26.0687 14.3424 -22.7598
282 1 Ar 16.3953 14.0677 0.584852 -2.07234 0.440262 0.644415 -42.0868 -5.28255 -0.250231
1171 1 Ar 1.04337 14.2914 1.53768 1.87951 0.652049 0.298825 -23.7963 -0.839881 -3.60797
328 1 Ar 15.8388 14.2386 16.4562 -0.969979 0.062303 -0.579957 0.468717 1.48889 -16.3193
725 1 Ar 1.69246 13.5925 1.8947 0.983783 -0.0322924 1.70312 10.4795 -12.069 5.38315
732 1 Ar 0.592725 13.5222 2.24508 -0.471852 -0.310268 -0.51411 21.2139 1.67303 19.0917
692 1 Ar 1.07373 13.0474 1.09322 -0.537295 0.17679 1.42377 -6.71614 13.3117 7.4504
249 1 Ar 3.11129 12.08 0.944734 -0.817457 1.21449 -0.501201 -11.849 -17.1929 -10.8477
690 1 Ar 4.35381 13.5219 1.35131 0.306991 -0.17505 -0.0641989 -3.23391 -3.77378 11.0438
332 1 Ar 5.39543 13.1425 1.13877 -0.676888 -0.613876 0.276068 10.0798 12.3344 -18.8377
686 1 Ar 2.70962 13.981 0.178424 -0.483754 -1.16006 0.162476 1.25106 -48.1773 -12.3892
729 1 Ar 3.23828 12.9176 0.144738 -1.72292 -0.399228 -0.947217 -75.8061 -35.8198 37.9311
295 1 Ar 8.27967 12.5803 0.162096 -0.956381 -1.22761 0.798426 25.372 2.67392 18.6976
700 1 Ar 6.72921 13.3336 1.32514 -0.0828678 0.034464 0.612417 -13.6936 -11.0366 -7.59554
339 1 Ar 7.84503 12.9421 1.90743 -0.281243 0.703814 1.18575 -3.04122 1.28376 -11.0992
302 1 Ar 7.90053 13.5433 1.01664 1.51927 0.0236661 -0.932662 -23.699 -25.0734 -9.95231
301 1 Ar 8.73003 13.1521 2.47098 -0.752101 1.18142 -1.20845 12.027 -8.42034 6.12134
707 1 Ar 9.78802 12.601 0.73361 -0.142825 0.0622195 2.1686 -0.889193 -4.86426 -7.00597
3903 1 Ar 9.80001 12.2418 2.01508 -1.63668 0.425087 0.579376 -7.48719 -1.27796 -16.1001
308 1 Ar 10.0931 13.2251 16.6548 0.313628 0.621504 0.520003 12.0512 13.5979 2.99187
662 1 Ar 8.90892 12.5473 1.22522 0.00019875 0.431977 0.471846 -20.318 -1.28623 10.5628
705 1 Ar 10.6414 12.5096 1.32906 0.160181 -0.711776 0.224922 10.5996 4.91306 27.3436
385 1 Ar 11.9756 12.8417 0.495906 -0.391825 0.403684 -0.158636 3.2087 -0.530635 3.06063
351 1 Ar 12.276 12.0032 1.48105 0.867003 2.15522 0.0873397 6.26448 -9.73208 -39.2992
310 1 Ar 12.8242 12.7839 16.5581 -1.64404 2.20296 -1.28097 -7.09391 -21.1312 1.44098
360 1 Ar 13.3606 11.8333 1.63395 -0.258175 0.660667 -0.985988 -4.64975 1.3889 -6.24105
354 1 Ar 13.0987 12.7615 0.861948 -0.931103 -0.2559 -0.123885 -5.55198 -19.7704 -15.1585
391 1 Ar 13.2085 12.8463 1.85099 -0.179935 0.298004 -1.54878 6.92223 -43.1765 3.66386
3884 1 Ar 15.1043 12.5088 1.57196 -0.739639 -1.32926 0.582148 2.72079 -21.4456 0.36418
3959 1 Ar 14.0881 12.5956 1.34824 0.434856 -0.206324 1.50384 0.565947 -1.07437 -11.565
684 1 Ar 14.709 13.4097 1.75682 -0.51615 -0.888305 1.39559 -9.75744 7.18969 -3.5535
321 1 Ar 0.0273212 12.4509 0.623652 -0.0156035 1.12762 -0.821557 6.23799 1.36258 4.21411
318 1 Ar 15.7995 12.0005 0.501333 -1.22392 -1.52253 0.436276 -12.2004 -7.27435 6.17097
244 1 Ar 15.9121 12.2235 2.64646 0.242553 -0.745668 2.17436 -1.99797 10.8689 -4.8692
3924 1 Ar 15.6031 13.3148 0.115424 1.37783 0.446537 -0.082338 1.02792 -9.60612 4.89087
368 1 Ar 0.58004 14.0173 0.61032 0.656118 -1.09847 0.289442 38.9879 -23.0445 -8.32289
398 1 Ar 16.5847 14.9154 0.0510233 -1.24187 0.303328 -0.0522958 3.1989 20.8041 -10.1241
367 1 Ar 2.56396 14.1927 1.51905 0.913926 -1.19598 -0.210475 -16.7377 45.3843 -0.238742
726 1 Ar 16.7872 13.3357 16.7923 -1.31689 -1.27615 -0.194991 4.11529 -6.46042 -13.8949
336 1 Ar 4.46067 14.9196 1.54873 1.20762 0.049849 0.785689 4.9216 -7.50328 -2.62012
762 1 Ar 3.57375 14.1524 0.999132 0.386416 -1.71411 1.05597 -4.36186 9.57497 -0.532303
770 1 Ar 3.46474 14.4786 2.16838 0.847192 -0.379198 0.906023 -25.0333 -9.73813 -9.26632
335 1 Ar 5.30949 13.6519 2.57286 -0.0812906 -1.22296 1.14701 0.0510603 -7.44158 0.388817
734 1 Ar 6.27693 16.4587 1.59167 -1.67523 0.506195 -0.562612 7.85871 -15.3998 9.38629
735 1 Ar 4.40451 14.1892 2.34847 0.914308 -0.726327 1.34499 23.8708 5.73292 -1.95892
3575 1 Ar 5.32563 14.1816 1.44195 1.35367 0.208626 0.109593 1.32055 -9.04944 4.75718
733 1 Ar 6.79347 14.5787 1.08439 0.209795 0.555604 -0.581764 -11.4135 13.0361 -5.78292
1060 1 Ar 6.16321 15.2605 1.79576 -1.6839 1.18733 -0.0712327 5.84057 0.718477 -1.21826
740 1 Ar 5.50669 15.0276 0.82286 -0.104548 -1.91375 1.08744 1.34464 4.06936 5.25544
1137 1 Ar 7.1786 14.9194 2.40386 -0.345442 0.226437 1.86405 -4.37882 7.35049 4.88768
747 1 Ar 8.51456 14.2935 1.14233 -0.920846 -0.16678 -0.328397 43.7145 22.6024 -6.43108
337 1 Ar 7.74295 14.9153 1.40475 -1.00841 -0.236787 0.232446 -11.2496 10.9287 5.39135
266 1 Ar 8.70548 13.5592 16.7851 -0.391602 -1.84731 -1.55393 22.4613 6.51522 -1.27115
305 1 Ar 9.33256 13.5426 0.851701 -1.9568 0.714222 0.165809 -2.89438 4.22563 4.19253
3951 1 Ar 11.1516 14.6559 0.854578 0.43338 0.00321089 0.126772 18.0954 -1.15854 -8.56587
345 1 Ar 12.0703 14.5874 1.52791 -0.310615 1.76783 -0.244285 -26.1771 13.6527 3.24267
350 1 Ar 12.146 13.9808 0.653445 0.499285 0.0457824 -0.0285689 -19.7512 1.18165 -30.0645
749 1 Ar 10.5736 13.6417 0.846516 0.0333967 1.04785 1.56138 -2.79148 -1.68185 -3.44853
348 1 Ar 11.8248 15.8349 1.07082 -0.273173 0.29643 0.371009 -14.1103 -20.1311 -14.4604
393 1 Ar 13.7713 13.6513 1.20282 -0.47938 0.65169 -0.475097 7.06893 -8.30369 2.28389
39 1 Ar 14.5869 13.2943 0.560592 -0.469607 0.359024 1.25211 43.903 38.8861 26.0978
357 1 Ar 15.3957 13.8581 1.12145 0.689652 0.73541 1.18387 10.6355 -8.88045 -2.73407
758 1 Ar 16.1241 14.6102 1.41399 1.14625 0.166971 -0.0964839 3.16189 5.58581 18.1842
722 1 Ar 15.5066 14.7256 0.539285 -0.821046 -0.973816 0.572076 -5.09092 -6.42552 -7.57268
325 1 Ar 0.258002 14.8994 1.01341 0.808365 1.99565 -0.278741 -39.2361 -20.9161 -28.9768
364 1 Ar 1.71624 15.8799 0.388732 0.738988 -0.175376 -1.08206 3.1213 -5.91237 5.82844
3607 1 Ar 1.80144 15.9714 1.57413 -0.727811 0.239651 2.46874 24.7643 -3.34605 -14.4209
361 1 Ar 1.75072 14.8275 1.0009 -0.541209 0.873787 0.574265 17.7027 -1.25518 -22.8837
409 1 Ar 2.57049 15.9282 16.4397 0.511769 -0.864798 -0.146982 -9.92582 -6.02882 4.2265
93 1 Ar 3.45174 0.22565 1.10674 -0.114273 -1.30507 -0.323514 -19.6498 -17.4446 18.0033