ITEM: TIMESTEP
600
ITEM: NUMBER OF ATOMS
4000
ITEM: BOX BOUNDS pp pp pp
0.0000000000000000e+00 1.6795961913825074e+01
0.0000000000000000e+00 1.6795961913825074e+01
0.0000000000000000e+00 1.6795961913825074e+01
ITEM: ATOMS id type element x y z vx vy vz fx fy fz
1 1 Ar 16.5374 0.0560773 16.368 0.960542 -0.916053 -1.19815 0.479397 -11.9552 5.64057
2 1 Ar 0.485067 0.868122 16.7434 -0.0366535 0.142065 0.42487 0.994159 0.774824 3.68466
3 1 Ar 0.574626 0.0808397 0.749103 -0.284226 -2.22942 -1.07644 11.3528 4.50287 5.67181
4 1 Ar 16.61 0.865047 0.970573 -0.978443 0.208589 0.643394 3.09883 13.0334 -5.59142
5 1 Ar 1.65741 16.3339 16.3262 0.150471 -0.934058 -1.52751 3.38863 6.50287 -5.29015
6 1 Ar 3.24431 1.07957 0.774143 -0.184548 -0.503495 -0.80914 13.3658 5.16726 -10.1002
7 1 Ar 2.4538 0.372275 0.260717 0.296524 1.05339 0.0111525 -6.60849 0.496437 23.301
8 1 Ar 1.31175 0.830605 0.614908 -1.25125 -0.0744195 -0.371925 13.642 1.01039 6.09942
9 1 Ar 2.94197 0.289068 16.1816 0.943703 0.430249 -0.10589 -3.01443 0.208564 -6.21334
10 1 Ar 3.79894 1.56659 16.6853 1.55406 -0.80312 0.385309 1.96606 -2.09648 -1.36503
11 1 Ar 3.9274 0.34014 0.264322 -0.852962 0.00932817 -0.613713 -0.744469 2.01511 -14.4777
12 1 Ar 4.22091 2.08139 0.801688 0.230403 -0.334714 -0.372751 10.4453 -17.2159 8.64681
13 1 Ar 4.84657 0.198033 16.354 -1.07252 1.10916 -0.446037 -3.18061 -1.71611 16.5816
14 1 Ar 5.96589 1.11125 0.0258299 -0.345864 1.02821 -1.22855 -7.58603 -10.3793 -4.3384
15 1 Ar 5.78719 0.582424 1.01523 0.0905916 -0.219161 0.515195 4.49144 9.95128 2.38003
16 1 Ar 4.81037 1.01747 0.408632 0.700144 1.21145 0.308332 -4.27776 -18.2428 2.84118
17 1 Ar 6.01651 0.0386675 0.0934746 1.34281 -0.502591 0.371776 10.3784 1.8246 -9.96618
18 1 Ar 7.76032 0.682745 0.0528457 -0.173294 0.286575 0.471208 -5.04228 -4.73094 -16.3443
19 1 Ar 7.08274 16.5587 0.0999513 -0.687164 -0.813077 2.14325 4.02629 17.656 23.0822
20 1 Ar 6.85063 0.687347 0.817993 0.372871 1.43913 -1.06491 -3.79875 -2.67152 -17.3801
21 1 Ar 8.19108 16.2055 0.213898 1.71152 -0.550883 0.990917 -31.8668 37.2794 -2.74762
24 1 Ar 8.36331 0.512307 0.897832 -1.50483 1.33353 -0.55333 6.18271 -6.02372 3.51892
22 1 Ar 9.31038 0.521676 16.6447 -1.33489 -0.858151 -0.98571 -16.8314 11.1772 18.291
23 1 Ar 10.1155 16.5941 1.06277 0.844023 -0.311107 -1.29869 5.42338 10.8564 -11.7
25 1 Ar 10.379 0.205611 0.00570091 -0.0867096 0.577074 0.270046 -51.1722 71.9809 32.2457
28 1 Ar 10.276 0.906307 0.864035 0.279865 0.174391 -0.788649 0.589376 -4.36721 5.83633
26 1 Ar 11.0473 0.972124 0.0666411 -0.328211 -0.922223 -0.0703028 23.6903 7.45697 4.77117
27 1 Ar 11.1106 0.176073 1.03168 1.24725 0.179826 0.282555 8.7216 -24.3519 -26.1557
29 1 Ar 11.6856 16.8012 0.066985 -0.327194 1.73778 -0.647748 -3.71459 10.5249 -5.92469
32 1 Ar 11.8812 1.0501 0.946026 -0.37831 -0.568177 -3.26535 1.61829 -8.77904 -3.76988
30 1 Ar 12.2418 1.06332 16.726 2.43346 0.121007 0.110904 1.37864 -4.22187 -7.11435
31 1 Ar 12.2548 16.7394 0.987597 1.5032 0.254345 0.758955 4.77249 -1.17547 0.0690885
33 1 Ar 13.3184 0.420873 16.7057 1.11321 -0.730162 -1.25982 -0.230746 -18.187 -40.1626
36 1 Ar 13.2277 0.715595 0.827575 -0.881742 -0.40344 0.276457 3.80038 17.7992 28.3297
34 1 Ar 14.2144 0.949438 0.0255909 0.591 -1.06507 -1.27362 1.12931 7.90317 1.95386
35 1 Ar 14.2681 0.296464 0.951381 0.107135 -0.111693 -0.349833 -48.2119 -3.64469 -16.2881
37 1 Ar 15.0076 0.210791 0.0673783 -0.999603 0.69565 -0.366784 10.1188 0.0783951 7.60976
40 1 Ar 14.9914 0.967875 0.808251 0.724315 0.277985 0.299083 13.3312 14.0658 -4.2041
38 1 Ar 15.7795 1.09491 16.7899 0.40573 -0.890693 0.0900916 4.53128 -7.0789 -2.93699
39 1 Ar 15.8062 0.16593 0.814191 0.897919 -0.618529 0.87787 11.1805 13.6038 -3.73423
41 1 Ar 16.7107 1.87063 0.0897444 0.0375267 1.24877 0.532833 -4.74877 -10.5426 -9.71652
42 1 Ar 0.710741 2.83541 16.7374 -1.32591 -0.0894154 0.287053 1.05967 -1.5264 -4.3438
43 1 Ar 0.837731 1.86699 0.761085 -0.100324 0.0764283 0.387215 -10.1464 0.639017 13.7968
44 1 Ar 0.0570508 2.64532 0.755027 -0.543851 0.0789313 -0.0939766 -18.691 0.227035 7.65105
45 1 Ar 1.52769 1.71994 16.8208 0.47775 0.323686 1.02917 -1.38753 -20.6771 -32.6631
46 1 Ar 2.50165 3.1899 0.0920743 -0.223234 0.801013 0.736254 -0.196799 -12.1125 24.6526
47 1 Ar 2.15591 1.79733 0.832263 -0.865194 0.772296 -0.553239 20.8031 -11.3577 -2.3483
48 1 Ar 1.63795 2.62236 0.49563 -0.274428 1.59928 -0.044974 -7.71467 19.8834 1.76556
49 1 Ar 2.77572 2.14141 16.7044 0.561671 0.0245277 0.766455 5.84781 4.41011 15.4354
50 1 Ar 4.62684 2.8952 0.205207 0.586923 0.920674 1.99961 -16.2325 4.51358 15.8913
51 1 Ar 4.60062 2.97514 1.37197 -0.111204 1.34954 -2.20173 -6.62013 -10.9393 -3.65535
52 1 Ar 3.4049 2.66912 0.733823 -0.105198 -0.0613387 -0.756486 -21.5306 -1.87383 4.35347
53 1 Ar 5.14749 1.96387 0.276203 -0.367552 0.616846 0.331465 3.26575 8.15718 -3.81926
54 1 Ar 6.08366 2.1479 16.6775 2.72797 -0.50841 0.963682 10.5685 13.1015 -8.99199
55 1 Ar 6.21136 1.67066 0.880093 0.291806 -0.335854 -0.0313338 5.16626 0.0422158 1.4994
56 1 Ar 5.65655 3.47659 0.638052 1.17268 0.082214 -0.230382 -0.139517 -4.29669 -13.1259
57 1 Ar 6.98952 1.53169 16.7131 0.190127 -0.784908 -1.3356 -20.0057 -11.13 21.8776
58 1 Ar 7.77275 2.20691 16.6447 -0.311332 2.06116 0.921011 1.97109 -0.918731 -6.41062
59 1 Ar 7.70428 1.43777 0.754541 0.619562 -0.876723 -0.691649 -3.59468 1.15782 10.8673
60 1 Ar 7.11666 2.36799 0.686109 -0.514482 -0.404433 -0.251107 -6.51878 0.700316 -2.1775
61 1 Ar 8.61323 1.45991 16.6543 0.173978 -0.901247 -0.488506 -1.91837 1.10048 1.79507
64 1 Ar 8.38646 2.22797 0.669006 0.762837 -1.06202 -0.566282 18.0787 8.66353 13.1409
62 1 Ar 9.36645 2.3486 16.7351 -0.0943413 -0.203172 -0.900232 2.41587 -2.41808 8.11043
63 1 Ar 9.22383 1.2383 0.725673 -0.759764 -1.90778 -2.29243 1.86802 3.12884 4.79558
65 1 Ar 10.0734 1.34361 16.6838 -0.470278 0.467825 -0.599911 -15.123 13.3529 15.4402
68 1 Ar 10.0883 1.97782 0.794634 -0.239682 0.169114 -0.038156 -0.891969 -9.00527 -36.442
66 1 Ar 10.833 2.56646 16.8005 0.152239 -1.12778 0.43914 -18.274 11.5588 2.16465
67 1 Ar 11.0488 1.74801 0.959163 -0.993094 0.971551 0.172413 36.1818 -28.7569 -20.6468
69 1 Ar 11.7146 2.07592 16.7406 -0.071989 0.148343 0.000199162 18.8972 -15.2508 6.97968
72 1 Ar 11.6235 3.05199 0.707236 0.454036 -0.0232248 0.927657 6.68693 -17.2415 -9.09365
70 1 Ar 12.5773 2.79784 0.028355 0.875273 -1.26919 0.0922907 -4.45807 1.15442 -6.92588
71 1 Ar 12.7292 1.79749 0.59681 -0.266161 -1.14168 0.439284 -0.545162 -2.21707 1.86311
73 1 Ar 13.3607 1.63859 16.4576 -0.761726 -1.27736 -0.0334829 -3.16165 -10.4123 21.837
76 1 Ar 13.3201 2.69768 0.79574 -0.145556 1.26459 1.52187 13.5031 -11.3644 -12.6323
74 1 Ar 14.4898 2.78773 0.328815 -0.48238 0.113333 1.35914 -0.767979 -1.34437 4.7347
75 1 Ar 13.9485 1.67555 0.741241 0.860962 1.18137 0.327088 4.11516 2.73129 -2.92102
77 1 Ar 14.9516 1.80998 0.00153135 -0.292273 -0.269066 0.00470758 20.3848 -2.76275 25.5568
80 1 Ar 14.1906 2.44308 1.53099 -2.01078 0.0411442 -0.461336 2.66568 2.41909 -0.450571
78 1 Ar 15.7384 2.63494 0.122318 -0.272135 -0.42461 -1.12002 1.88646 -3.75138 -0.301861
79 1 Ar 15.7476 1.7191 0.876391 -0.22208 -0.922853 1.46322 2.14212 -1.06579 -15.2213
81 1 Ar 16.5004 3.44444 0.000576538 -0.772928 -0.0627397 -0.584392 5.23458 1.08286 -4.39004
82 1 Ar 0.559125 4.22416 16.7071 0.202611 -1.07996 0.215808 4.84963 -6.19017 -9.59414
83 1 Ar 0.620179 3.51021 0.844613 -1.7428 -0.626415 0.871125 3.59359 8.82036 -20.6952
84 1 Ar 16.5858 4.24376 0.72137 -1.47044 1.08906 0.568611 3.68876 10.8016 3.63648
85 1 Ar 1.52445 3.56408 16.615 -0.687257 -0.645332 -2.19051 -1.82451 2.17491 -6.24518
86 1 Ar 2.57055 4.26584 16.8001 -1.89397 0.943522 1.25426 -4.94306 -8.62595 15.5764
87 1 Ar 2.80998 3.73749 0.97874 -1.42698 -0.383623 -1.66054 22.1989 -5.95118 -20.825
88 1 Ar 1.56045 4.08243 0.740386 0.488916 -0.883014 -0.842627 7.58697 26.3706 -14.5372
89 1 Ar 3.54809 3.47589 0.12951 2.33385 -0.244226 0.098186 5.85245 8.88814 -12.4203
90 1 Ar 4.579 4.05617 0.231668 -0.911026 0.43033 0.145195 -18.7431 -14.1087 -17.3163
91 1 Ar 3.9892 3.79633 1.12859 -2.34806 -0.191836 0.920535 -3.91055 4.12854 -1.38555
92 1 Ar 3.47898 4.48386 0.476398 -1.28417 0.536058 0.625595 5.68314 6.6963 -0.480206
93 1 Ar 5.29673 3.29658 16.3482 0.184384 -1.02588 1.10194 18.65 10.9474 -4.37526
94 1 Ar 6.14921 4.1554 16.4709 0.586262 -0.523956 -1.2302 -11.0772 5.35248 11.1871
95 1 Ar 6.81077 3.35098 1.07236 1.1134 -0.55284 0.712247 9.11803 14.7422 2.48942
96 1 Ar 5.25654 4.57552 0.743304 -0.414283 0.0452683 0.0681371 5.85327 -0.0911552 18.1783
97 1 Ar 7.07497 3.44543 0.0796304 -0.146675 -1.19422 0.29692 2.54236 -1.73981 -0.53674
98 1 Ar 7.92495 3.92049 0.416641 -0.123463 0.968304 -0.181139 11.2766 5.09759 9.49233
99 1 Ar 8.24111 3.33297 1.34262 -0.854871 0.121136 1.49202 -7.53101 -4.0088 -4.72157
100 1 Ar 7.01806 4.50192 0.41457 -0.110185 0.0620172 0.172051 10.2676 -1.77719 -0.392727
101 1 Ar 8.45393 3.14207 16.7162 -0.38468 0.869532 0.261452 -1.23193 -12.5193 11.3747
104 1 Ar 9.13312 4.31155 1.09094 0.653342 -0.618859 -1.14752 -17.5951 -10.7806 -5.17479
102 1 Ar 8.98989 4.04642 0.0296788 -1.17948 -0.466129 -0.990165 7.60966 9.59807 0.852362
103 1 Ar 9.32295 3.25275 0.665753 1.39713 0.953498 0.962478 0.182998 -3.39906 4.44011
105 1 Ar 10.1278 3.47839 16.7002 0.723689 0.668403 0.0920345 -9.14852 -0.201267 -13.9888
108 1 Ar 10.1213 4.39616 0.841726 -0.362244 -0.310894 0.452028 21.5135 -13.0296 -2.23451
106 1 Ar 10.8392 4.42233 16.6411 -0.795499 0.258869 -0.01579 4.02268 -23.408 20.5494
107 1 Ar 10.747 3.51677 0.716888 1.33855 0.350429 0.0809353 -7.71214 10.3866 3.38826
109 1 Ar 11.5177 3.56279 16.5614 -1.02233 -0.651161 -0.0938793 -31.1366 -13.5345 10.5978
112 1 Ar 11.538 4.35478 0.805278 1.25784 -1.4246 0.109168 -14.5205 -15.9309 -19.7848
110 1 Ar 12.2909 4.19823 16.6969 -1.52839 0.217709 -0.0224257 -7.67765 4.28014 24.0436
111 1 Ar 12.5299 3.55148 0.825258 0.339595 -0.731217 -1.74329 12.4821 23.7973 -3.55806
113 1 Ar 13.6919 3.66233 0.578254 -0.90997 0.218628 -0.543304 -53.3705 10.3253 -50.4148
116 1 Ar 13.1532 4.34698 1.39095 -0.186023 0.453007 0.138195 1.63892 -2.17714 -0.625685
114 1 Ar 14.2358 4.33241 16.8147 -0.239734 0.583676 0.963978 7.54874 0.976794 -4.97392
115 1 Ar 14.2941 3.50988 1.28098 -0.366207 0.199656 -0.418636 28.4039 -20.8088 46.2949
117 1 Ar 15.1818 3.57808 16.7111 -0.432428 -1.22361 2.1199 -4.96742 -3.91097 5.94979
120 1 Ar 14.9039 4.19882 0.77956 0.965457 0.243293 1.09099 13.8934 4.5386 8.38822
118 1 Ar 15.5714 4.56672 16.5516 -0.268271 -1.39999 0.930084 -3.04232 2.44374 6.57527
119 1 Ar 15.9954 3.43916 0.957497 0.404951 -1.09859 1.2252 -20.8271 -10.6448 -5.46595
121 1 Ar 16.5647 4.95236 16.6899 -0.350246 -2.06214 0.419428 -22.4338 -6.82313 29.1859
122 1 Ar 0.44934 5.52102 0.353358 0.039061 1.69637 -0.0208919 15.9445 21.8546 -17.7927
123 1 Ar 0.763714 4.70356 0.79949 0.023939 -1.38331 0.184323 -3.86625 -7.74073 20.3997
124 1 Ar 16.4402 5.93212 0.765125 0.646451 0.906289 0.944087 -23.7857 6.91535 14.8042
125 1 Ar 1.55359 4.86776 16.7203 1.36804 0.458503 1.27076 6.87365 -10.1106 -6.52466
126 1 Ar 2.54235 5.51709 16.5236 -0.544085 -0.0236608 -0.292538 -4.55692 -2.14266 8.17153
127 1 Ar 2.37028 4.90942 0.86365 -0.977724 0.106602 -1.54591 -21.0396 3.77692 -17.2176
128 1 Ar 1.43726 5.51593 0.722545 0.934299 -0.834961 -1.1655 11.0606 9.14057 4.50415
129 1 Ar 3.57675 5.0139 16.3318 0.859604 0.0168489 0.133757 -3.25095 8.89748 0.0294534
130 1 Ar 4.09345 6.04843 16.1782 -0.192575 -0.0241104 0.328273 3.37944 16.5366 4.40172
131 1 Ar 4.32774 5.09301 0.80231 0.823283 -0.666757 1.36006 -9.74798 0.193638 9.70718
132 1 Ar 3.29627 5.57819 0.780883 -0.451253 0.361689 1.00831 -1.54343 7.43036 -4.71489
133 1 Ar 4.5786 5.28453 16.6471 -1.22412 1.74016 0.140962 17.7341 -9.26844 -12.6265
134 1 Ar 6.10673 5.99894 16.7056 0.493667 1.09302 -0.865668 -2.21258 -3.8336 9.54722
135 1 Ar 6.0898 5.0558 0.409875 0.27601 0.554422 -0.26751 13.0759 11.2866 -13.5963
136 1 Ar 5.2445 5.66696 0.673542 -1.05072 -1.21238 -0.863058 -42.6986 -3.34484 -26.9161
137 1 Ar 6.93707 5.26607 16.4917 -0.284339 0.969162 -0.536902 -8.21212 -3.26721 -5.62821
138 1 Ar 7.70724 6.05275 16.445 0.986883 0.207352 -0.018484 8.11081 0.67797 -4.99362
139 1 Ar 8.09785 4.88716 1.03382 0.673865 0.320796 -0.498871 3.44463 1.98695 6.65885
140 1 Ar 7.12883 5.90709 0.514364 0.414674 -2.43119 0.22196 -13.4141 -2.59933 3.39129
141 1 Ar 8.07585 4.8974 16.783 -0.662067 -0.350363 -0.22071 2.08624 4.01069 -7.48433
144 1 Ar 8.19981 5.99508 0.724824 -1.31834 0.780979 -0.315044 18.5922 -1.63821 -14.4894
142 1 Ar 9.47371 5.81305 16.3872 0.0812314 -1.64645 1.44271 11.9838 6.60315 2.74529
143 1 Ar 9.0821 5.28754 0.477446 0.260088 -0.648249 1.21757 -14.6924 2.71548 -2.61923
145 1 Ar 9.89879 4.89047 16.7432 -0.258512 -1.0491 0.630592 4.50746 0.0929333 0.1873
148 1 Ar 10.0614 5.98081 0.70726 0.0271921 -1.00962 0.37916 16.8789 -13.291 -24.3299
146 1 Ar 10.81 5.84164 16.6278 -0.969281 -2.50185 -1.50721 -6.5159 24.1839 -3.18695
147 1 Ar 10.8594 5.23141 0.604745 -1.46173 -0.0361884 -0.712534 -1.86101 -18.9391 25.4815
149 1 Ar 11.6656 5.11361 16.5292 2.8489 0.503856 -0.131068 -1.30657 12.1849 9.93581
152 1 Ar 11.5228 6.32186 0.536601 0.423592 1.70005 -0.0963347 -5.72506 8.57539 1.72647
150 1 Ar 12.3345 5.89616 16.7961 -0.170569 -0.402319 0.746683 15.5779 7.76986 -13.1244
151 1 Ar 11.9277 5.32558 0.748594 -0.518703 0.814203 0.147593 -3.3562 -3.98162 15.0225
153 1 Ar 13.1406 4.79747 0.211079 -0.828631 -0.371762 0.503986 6.42171 -2.24617 -2.77794
156 1 Ar 14.1259 6.20116 1.67191 -0.587724 0.0189007 0.0836705 -26.9553 0.338191 -42.0106
154 1 Ar 13.9214 5.8635 0.59566 1.10512 1.37126 -0.803878 -10.7945 -4.34369 -1.43584
155 1 Ar 14.1226 4.96491 1.16658 -0.526486 -0.449911 -1.48034 0.591397 -4.37542 2.46127
157 1 Ar 14.5196 5.4116 16.6602 0.469763 -1.85241 1.42303 5.03103 -5.99047 -6.94315
160 1 Ar 14.7001 6.55692 0.778717 -0.0186047 0.857929 -0.342657 5.83554 2.46375 -2.10744
158 1 Ar 15.6549 6.00741 16.8117 -0.623021 -0.931535 1.09265 -5.01554 -5.43722 1.59176
159 1 Ar 15.2398 5.29372 0.693275 0.13284 1.03174 -0.456369 -1.35624 -4.77405 6.69748
161 1 Ar 0.0282223 6.63705 16.7788 -1.9128 0.132198 0.32994 -4.72686 -8.07208 -16.9274
162 1 Ar 0.801294 7.44127 0.116561 -1.75074 -0.0123451 -0.635544 -3.9437 -15.7217 -6.34215
163 1 Ar 0.574459 6.46149 0.878415 -0.363432 -1.25099 -0.876291 21.2667 -0.0978606 -5.78644
164 1 Ar 16.7331 7.27269 0.802146 -0.0346516 -0.400809 -0.994375 -2.43663 15.4752 10.5175
165 1 Ar 1.19076 6.0827 16.6517 -0.57813 -0.175091 0.452582 6.49129 2.89878 -1.0884
166 1 Ar 2.26197 7.34648 0.235554 -0.248529 -0.610898 0.620865 -5.41173 -15.7567 31.1753
167 1 Ar 2.29817 6.29058 0.536395 -1.06215 -0.254287 0.744696 -14.1027 -5.60385 9.83236
168 1 Ar 1.38325 7.37427 0.952205 -1.0541 -0.0877758 0.559981 4.95535 -12.9915 3.69635
169 1 Ar 3.1284 6.4395 16.7679 0.148704 -0.0195584 -0.831409 15.9582 1.79193 -8.88445
170 1 Ar 4.55849 7.77272 0.470657 -1.07114 0.202272 2.28248 8.80354 25.3691 36.7438
171 1 Ar 4.30256 6.32093 0.561641 -0.0634768 0.605859 -1.13328 -6.99434 -10.4834 -1.44041
172 1 Ar 3.58244 7.08616 0.754611 -0.148972 0.295648 0.455396 -13.6975 -7.19645 -17.0123
173 1 Ar 5.20172 6.68292 0.181744 0.277564 0.326743 0.329256 11.1363 2.75041 -1.27358
174 1 Ar 6.13472 7.56543 16.7061 0.577899 0.68662 -0.274112 7.3895 10.8235 5.52341
175 1 Ar 6.15188 6.98652 0.800818 1.02634 -0.167238 1.28318 2.85072 -5.79029 -5.77089
176 1 Ar 5.63672 8.04647 0.8345 0.610822 1.04865 -0.334338 -3.06315 -14.1639 13.1008
177 1 Ar 6.80108 6.77566 16.7135 0.410687 -0.914158 -0.502775 18.7363 3.43442 0.201827
178 1 Ar 7.33148 7.80926 16.7089 0.264688 -1.95053 -1.11556 2.62909 8.04936 0.111943
179 1 Ar 7.90226 6.97244 0.160086 0.214951 0.39553 1.34037 -3.73609 -0.732692 15.6991
180 1 Ar 7.16352 7.4732 0.912265 -0.27178 -0.770758 -1.34761 -3.87731 -3.19186 1.4696
181 1 Ar 8.75014 6.67724 16.4458 -0.84134 0.0982796 -0.107291 -5.70009 9.03677 10.9717
184 1 Ar 8.55181 7.55375 0.854212 -0.107536 0.372522 0.592568 0.652539 -2.62136 7.54848
182 1 Ar 9.16507 7.57624 16.7145 -0.0142846 -0.0669996 -0.630276 6.00601 8.07005 -2.24032
183 1 Ar 9.24041 6.61675 0.559784 -0.758123 -0.373304 -1.3323 -6.36324 9.69016 -1.86031
185 1 Ar 10.2332 7.02762 16.5255 0.0661291 1.93237 -0.984091 -28.5274 -3.42118 0.950451
188 1 Ar 10.0491 7.74278 0.438798 -0.648484 -0.0709047 -0.487544 1.35801 -6.10834 28.1421
186 1 Ar 10.9932 7.91694 16.5505 1.42408 -2.09907 -0.330255 -0.652517 -13.8704 6.00244
187 1 Ar 11.2407 7.46746 0.608712 -0.067171 0.086691 0.374725 -22.228 -30.6246 -3.35758
189 1 Ar 11.1632 6.82514 16.2611 -0.669428 0.695608 2.18481 19.4813 -1.00193 -0.420196
192 1 Ar 11.8576 8.14043 0.971354 0.643741 0.855284 0.523887 11.0603 25.0774 4.17244
190 1 Ar 12.1384 7.72517 -0.00377715 0.868644 -0.989845 -0.551024 2.54259 -0.808135 -7.34112
191 1 Ar 12.4256 7.08317 0.885169 0.991727 -1.25778 -0.0549578 -3.26635 -4.43311 1.14887
193 1 Ar 13.1381 6.66247 16.6724 -0.49906 0.420365 0.136706 -3.11982 0.196335 0.938154
196 1 Ar 13.1615 7.7833 0.658876 0.48556 0.659023 1.03615 -0.410452 14.6388 -4.84237
194 1 Ar 14.1132 8.07263 0.25097 -0.0156225 0.600168 -2.13506 7.16406 19.0897 22.4561
195 1 Ar 13.6681 6.86148 0.835097 0.0783018 -0.786685 1.92279 -2.54697 -0.278837 -1.51245
197 1 Ar 15.0264 7.68901 0.636913 -2.08005 -0.287276 0.684129 -9.94506 -9.61088 1.27303
200 1 Ar 15.1812 6.89668 1.68463 0.912122 -1.80854 -0.411366 0.946289 -16.8951 -23.87
198 1 Ar 15.6789 7.27016 16.5466 1.25147 -0.54348 0.384604 1.21513 5.02349 -7.05048
199 1 Ar 15.7356 6.84855 0.683611 0.0494028 0.787577 -1.02931 7.07859 -2.88163 17.5512
201 1 Ar 16.734 8.07934 0.0802493 1.25588 -1.1104 1.24477 -4.98111 3.36425 -20.4164
203 1 Ar 0.646166 8.21594 0.834693 0.203239 -2.01796 0.290697 9.59408 -17.7048 -1.61976
205 1 Ar 1.6923 8.20932 0.140945 0.468015 1.82835 -1.34024 -15.4987 5.60497 -1.48714
207 1 Ar 2.46664 8.27116 0.863144 -0.801693 -0.515874 -1.35708 5.95292 -4.47432 6.02105
209 1 Ar 3.2881 7.91765 0.184965 1.54322 -1.51224 -0.616231 -0.228312 4.37765 -8.40593
211 1 Ar 4.48961 9.19517 1.65613 -0.93911 -0.365198 0.947524 -11.2145 2.3512 -0.984596
213 1 Ar 5.13327 7.59685 16.4225 0.614144 0.380543 -1.02516 -4.92967 2.35459 -17.5477
215 1 Ar 6.69773 8.65505 0.509787 -0.49442 -0.603887 -1.04575 -5.79105 -30.9891 22.5545
217 1 Ar 6.59973 8.4416 16.2969 -0.534266 0.446768 0.319104 12.5599 -10.3455 -29.5764
219 1 Ar 7.65687 8.45365 1.03988 -0.588639 0.880577 -0.364445 -18.3671 1.68965 -14.3532
221 1 Ar 8.36913 8.26526 0.09042 0.163354 -1.62805 -1.16285 -8.17704 9.68991 -7.35793
223 1 Ar 9.23404 8.49267 0.770147 -0.612504 0.294672 0.842801 10.7653 -11.8646 -1.82019
225 1 Ar 10.1509 8.54692 16.6829 0.13531 -0.190897 0.112151 -6.42347 34.3419 -7.90364
227 1 Ar 10.851 8.68711 0.718648 0.775704 -1.79276 -0.375515 5.48397 -3.34604 -5.39274
229 1 Ar 11.8199 8.8303 16.7481 2.03517 -0.36149 -0.593163 -2.04825 -1.13583 -0.404111
231 1 Ar 13.06 8.95956 0.910074 -0.172735 1.76767 -0.837608 0.30671 -19.1403 5.60986
233 1 Ar 13.8756 9.13775 0.261386 -0.586227 0.97293 -0.98031 3.69335 2.82778 -10.1206
235 1 Ar 14.3167 8.73145 1.24114 0.132684 -0.472773 -0.114734 -6.34733 5.1444 0.0981394
237 1 Ar 15.0264 8.41794 16.5911 -0.970869 -0.955375 -0.751458 1.33534 -9.69953 9.00417
239 1 Ar 15.9379 8.10883 0.771381 0.635363 0.210566 0.633276 10.5092 -35.0534 -2.49776
202 1 Ar 0.792428 8.91245 0.0352003 0.551423 -0.418551 -0.285344 4.31659 -6.54983 4.47159
204 1 Ar 16.5511 8.88855 0.813425 0.00524536 0.0155322 0.3434 29.6925 13.233 -16.0353
241 1 Ar 0.0939953 9.68471 16.6311 -0.137888 0.160402 -0.278463 -5.83297 7.35152 0.500418
243 1 Ar 0.913435 9.94506 0.736983 -1.26322 0.887774 0.041764 -2.03949 -3.68931 0.9935
206 1 Ar 2.71978 9.19179 0.328488 -1.49357 0.497175 0.299809 -5.04547 -5.2662 -0.467304
208 1 Ar 1.71529 9.15101 1.01777 -0.261654 0.591104 0.446835 -9.98046 -22.7399 -37.9281
245 1 Ar 1.91829 9.99854 0.296774 -0.176261 0.0501647 -0.0738851 -6.57523 -16.2136 1.01772
247 1 Ar 2.61976 10.139 1.18018 -0.326835 -0.427432 0.516151 0.509971 -6.05705 1.8258
210 1 Ar 3.80847 8.85779 0.302376 2.19571 -0.664764 -0.146972 9.14953 -5.58844 -21.9458
212 1 Ar 3.41426 9.14894 1.17793 -0.685961 -0.166162 0.597264 -5.27815 3.58986 11.757
249 1 Ar 3.19517 10.1487 0.272036 -1.23288 0.153497 1.30322 7.79548 -5.58879 -4.56354
251 1 Ar 4.46522 9.71677 0.53083 0.740195 -0.491874 -0.977588 6.18123 12.5198 -29.6164
214 1 Ar 5.62805 8.5 16.7415 -0.916059 0.347171 0.153591 -9.46789 8.55247 -20.3503
216 1 Ar 4.87575 8.82751 0.624067 -0.157889 -0.0686125 -0.183357 5.62597 -24.5036 0.229097
253 1 Ar 5.6831 9.70633 0.758232 -0.315247 -0.052254 0.36142 -3.18341 -12.4163 -12.5855
255 1 Ar 6.55937 10.226 1.00978 -0.725661 -0.0535286 -1.17811 -2.16352 17.7651 11.6635
218 1 Ar 7.54876 9.09359 16.5186 -1.15429 1.14943 0.109556 9.03134 -17.3935 -22.7598
220 1 Ar 7.15209 9.55111 0.501564 1.24295 2.51654 1.54549 7.14799 16.0865 25.342
257 1 Ar 6.26048 9.31018 16.6545 0.150851 0.839781 -0.987125 -5.48016 46.3114 -1.13613
259 1 Ar 8.03575 10.1854 0.40348 1.35145 -1.66727 -0.282332 -5.10741 2.16853 -8.87287
224 1 Ar 8.46818 9.17538 0.827958 0.143469 0.336192 -0.590891 -11.8242 11.7767 -2.01586
261 1 Ar 7.67853 10.1398 16.1468 -1.3613 -0.698324 0.532276 0.887106 2.13391 -1.62825
222 1 Ar 9.27674 9.32339 16.5707 -0.394546 -0.365333 -1.10152 -3.34664 -2.72967 -2.10466
228 1 Ar 9.85415 9.41626 0.697862 -1.6077 -0.431752 0.663686 20.6432 -13.2752 7.83979
263 1 Ar 9.09952 10.0668 0.531505 0.739594 0.717703 -0.707771 -5.57332 7.744 0.191595
265 1 Ar 10.1942 10.38 0.164399 -0.498763 0.608334 -0.373861 0.303093 -15.3251 -14.608
226 1 Ar 10.8353 9.43846 16.6117 -1.00646 -0.341762 -0.16604 -17.343 -16.1099 -7.37761
232 1 Ar 12.0419 9.35171 0.983403 0.667016 -0.890839 -1.76822 -8.17214 -0.957919 -0.617425
267 1 Ar 10.866 9.92768 1.04622 0.191926 0.200005 1.92539 -9.97849 -2.17541 4.33615
269 1 Ar 11.5293 10.004 0.267745 0.623081 1.68113 -0.254151 22.4646 13.7846 -5.09495
230 1 Ar 12.716 9.5203 0.100027 1.74158 -1.13712 0.607217 -25.1563 -13.9527 -2.66124
236 1 Ar 13.6555 9.80799 1.11332 0.262811 -0.644641 -0.393519 -13.9601 -4.91247 13.1432
271 1 Ar 12.7949 10.4589 0.94658 -0.035439 -0.147965 0.174059 4.77721 -3.48135 17.1891
273 1 Ar 13.4559 10.1855 0.141354 0.059302 0.784416 -1.86852 27.0053 17.1479 -4.89514
234 1 Ar 14.6221 9.83098 0.772828 1.55959 -1.24405 -0.612868 18.9255 -3.32562 -15.286
240 1 Ar 15.3178 8.87013 0.937909 0.779556 0.0126551 -0.873891 -20.6491 22.8771 -21.6523
275 1 Ar 15.5044 10.6223 1.05401 -1.09855 -0.179396 -0.520574 -67.6456 -12.4707 -35.2986
277 1 Ar 15.4765 9.9221 -0.0139306 -0.990166 1.7084 -0.758823 -14.8618 0.437049 -8.41464
238 1 Ar 15.9709 8.94461 16.5644 -0.798531 -0.485995 -1.79528 4.80433 1.79922 2.43597
279 1 Ar 15.9725 9.69439 0.876378 1.00378 -1.32832 0.736915 -2.22621 26.8703 1.00524
242 1 Ar 1.08516 10.5724 16.5614 -0.373867 -0.778071 -1.32266 -3.29903 -2.69472 7.11849
244 1 Ar 0.340084 10.8581 0.504354 -0.548081 -0.0480102 -0.46414 39.2198 5.85031 26.2329
281 1 Ar 0.291782 11.7035 16.7001 -1.18553 0.133975 0.334222 -3.89128 7.67675 -4.98912
283 1 Ar 0.782378 11.7782 0.932062 1.31564 -0.241338 0.286244 -4.41878 -4.52293 -2.72734
246 1 Ar 2.40319 10.8663 0.120518 -0.098752 -0.563512 0.820626 2.67521 21.915 1.81594
248 1 Ar 1.51927 10.9369 1.0072 0.331409 -0.225874 0.906149 17.6081 1.96706 -16.7575
285 1 Ar 1.43648 11.7522 0.1161 0.553693 -0.389476 -0.426581 4.28689 -5.83813 -5.52347
287 1 Ar 2.42797 11.8214 0.679811 1.09366 -0.202162 0.0816981 -2.0609 0.692478 -3.4457
250 1 Ar 4.8381 10.8191 0.398603 -0.517628 1.28414 -0.358238 -28.8747 -2.57368 12.1428
252 1 Ar 3.22384 11.0554 0.895718 0.628748 0.925816 1.5389 1.38157 -26.9992 -16.3871
289 1 Ar 3.13345 11.7522 16.5097 0.458983 0.977089 0.579769 2.36358 3.84175 2.55869
291 1 Ar 3.94523 11.8394 0.69235 0.357408 0.241495 0.272836 1.95194 -2.69927 -1.14675
254 1 Ar 5.7786 10.5897 0.175515 0.609811 0.938691 -0.595207 4.43802 -3.65654 -6.03553
256 1 Ar 5.67136 10.9143 1.20272 -1.65534 -0.550075 0.6439 -2.83449 18.6815 -12.2079
293 1 Ar 5.48461 11.6212 0.184507 -1.04531 -0.480372 2.11041 0.18644 4.8829 -8.72835
295 1 Ar 6.09144 11.9023 1.58519 -0.79748 -0.811526 -0.989751 6.56637 -14.7318 4.25583
258 1 Ar 7.54745 11.2014 0.123865 -1.29541 0.439439 -0.215991 -11.9719 -1.35048 -7.99091
260 1 Ar 7.40436 10.445 1.80325 0.591502 0.621008 0.356446 -20.677 15.3307 -26.7005
297 1 Ar 6.3973 11.3231 0.586959 1.56023 -1.08368 -1.84713 25.3065 8.68565 1.88507
299 1 Ar 7.08701 11.5032 1.46962 0.658376 -0.240457 0.877132 47.7138 38.3612 -38.4146
264 1 Ar 8.38178 11.2662 0.735888 -0.735474 -0.50965 0.26571 -6.2394 -12.857 14.1536
301 1 Ar 8.29437 12.1892 0.174146 1.25038 1.26996 -0.634986 -35.9255 8.2779 -39.8826
262 1 Ar 9.16302 11.0205 0.105039 0.391923 -0.570247 1.2886 18.4817 24.5778 5.77866
268 1 Ar 10.033 11.0201 0.936161 1.48708 -0.145882 0.486298 -7.89519 8.83188 9.53216
303 1 Ar 8.92571 12.1348 0.89585 1.08256 0.0284399 1.10912 46.9433 -0.677317 39.4931
305 1 Ar 10.0016 11.8489 0.231133 0.029213 -0.273854 0.704195 -1.71953 2.87016 -8.31817
266 1 Ar 10.9418 11.1583 0.0257155 0.383263 1.14539 -1.8061 -15.4564 -7.46274 24.764
272 1 Ar 11.5349 10.8628 1.18687 -0.170607 -1.02581 -0.0956267 2.68326 -5.66438 -8.95293
307 1 Ar 10.8002 11.7574 0.978838 0.908907 0.7633 2.03612 7.11507 -16.9659 20.0915
309 1 Ar 11.7518 11.8994 0.227037 -0.763713 0.0293155 1.53628 9.28351 -7.70913 -2.04232
270 1 Ar 12.2312 10.8212 0.180597 -1.31943 -0.936982 0.489103 -10.3872 14.9991 -1.72034
276 1 Ar 14.0301 10.8291 1.0976 1.51838 1.20092 -0.420805 -10.4768 -1.23609 -13.894
311 1 Ar 12.8977 11.7054 0.825648 0.38976 1.0094 1.18322 0.964726 -20.0518 -3.78684
313 1 Ar 13.7936 11.677 0.209832 -0.59618 -0.661611 1.15611 0.503845 1.46743 -3.86163
274 1 Ar 14.466 10.7145 0.0677361 0.836213 2.06623 0.214599 -7.04682 -5.73358 -1.87764
280 1 Ar 15.3131 11.298 0.184633 0.192335 1.98904 0.0314325 -12.2775 0.0503111 -3.3434
315 1 Ar 14.3956 11.8287 1.07389 -0.0961035 -2.01334 1.58829 11.8505 -2.45271 -1.98122
317 1 Ar 14.8481 12.4377 0.300545 -1.8441 0.8247 -0.142106 -0.352569 -23.676 -1.63971
278 1 Ar 16.2721 10.5931 0.173429 -0.0551626 0.0359104 -0.0977251 -39.3482 -7.43019 -16.8375
319 1 Ar 16.1669 11.6485 0.551616 0.469087 -0.00367167 0.151119 23.8944 -3.90893 19.8005
282 1 Ar 0.663689 12.7107 0.257564 -0.321954 -1.62986 -0.352828 -14.7414 0.703528 -14.6928
284 1 Ar 16.6366 12.5968 1.0602 0.859698 0.177009 0.381381 19.7005 -7.08336 -5.75202
321 1 Ar 16.6753 13.5238 0.241027 -0.797238 -0.536759 -0.662798 42.3211 -6.86327 -9.43573
323 1 Ar 0.988119 13.521 0.948683 -0.147769 0.224535 0.0201391 -49.6993 -6.05162 -45.4858
286 1 Ar 2.19117 12.5346 16.6435 -0.286471 -0.13413 0.550489 -1.97927 5.08981 4.95006
288 1 Ar 1.47849 12.5413 0.843972 -0.209887 0.419248 -0.392632 20.6543 7.03195 4.41761
325 1 Ar 1.28075 13.7187 16.7011 -0.267892 -1.40864 -0.956933 2.37362 -17.8735 -0.413157
327 1 Ar 2.27352 13.3784 0.737083 0.680173 0.841575 1.11716 2.16954 12.5948 -21.1768
290 1 Ar 4.13569 12.4266 16.0556 0.447703 0.0870249 -1.91793 -16.5756 18.1315 7.17206
292 1 Ar 3.1622 12.6479 0.604549 -0.484736 0.198798 -0.464452 -10.1333 -1.52669 -0.771336
329 1 Ar 3.50294 13.4135 16.5973 1.4164 -1.58452 -0.1442 26.991 16.9678 24.3444
331 1 Ar 4.18873 12.8806 0.645538 0.569099 -0.713192 -0.136754 -1.65658 1.09471 -8.92827
294 1 Ar 6.41187 12.2225 16.5485 1.59705 -1.11424 0.289449 -3.12141 4.46555 0.386152
296 1 Ar 5.17959 12.6309 0.185825 1.29857 -0.135682 -2.21966 -3.0811 4.50924 10.5887
333 1 Ar 4.60716 13.5487 16.6703 -0.0244142 0.865175 0.0952752 12.2708 -18.1456 -22.4844
335 1 Ar 5.46681 13.6059 0.544357 -0.883725 1.19332 -0.276626 7.23272 -3.44968 -5.09221
298 1 Ar 7.31311 12.9149 16.5944 -0.0077862 0.569522 0.510839 0.380793 -11.3178 -7.1179
300 1 Ar 6.78038 12.4445 0.802864 1.21678 -0.713994 -0.0718307 -1.86707 -0.890045 2.49203
337 1 Ar 6.45713 13.3903 0.181131 -0.259623 2.43428 -0.988801 9.28659 -16.8988 11.6127
339 1 Ar 7.58839 13.187 0.991712 -0.903114 0.630973 0.828023 -7.3149 -23.2704 25.6485
304 1 Ar 8.00073 12.0676 1.43682 0.961869 -0.131158 -0.0183562 1.76973 10.8965 -3.94267
341 1 Ar 8.02387 13.5535 0.186314 0.272599 0.712136 0.752494 9.08177 8.73191 -30.5961
302 1 Ar 8.9174 13.1315 0.514978 0.653654 0.319405 -0.245536 3.59317 -0.899832 -8.1293
308 1 Ar 10.0953 12.6568 1.04008 -0.331559 0.372407 -0.0223024 -7.08608 3.98268 5.41439
343 1 Ar 8.31951 13.9793 1.09001 -0.0715828 0.328586 -0.311118 3.63399 -8.09189 -9.86543
345 1 Ar 9.72354 13.776 0.278206 0.312712 1.16542 -0.224661 15.796 -2.10555 11.3645
306 1 Ar 10.9189 12.5364 0.381365 0.618919 -1.32937 0.396628 -4.08491 37.313 -10.9709
312 1 Ar 11.7749 12.6769 0.957451 -0.909333 1.13974 0.617613 -0.404117 9.76467 7.7482
347 1 Ar 10.9241 13.6756 1.3329 -1.11952 -0.37883 -0.727128 -19.2053 -6.76597 -22.5548
349 1 Ar 11.9042 13.2639 0.0025812 0.865734 -2.09456 -0.471687 21.9006 6.76306 26.8062
310 1 Ar 12.6995 12.5774 0.26235 1.24142 -0.301073 0.301204 -8.15083 4.44978 2.8369
316 1 Ar 13.6156 12.5574 0.950436 -0.24323 -0.335663 2.3421 -5.66335 -3.41315 -26.2884
351 1 Ar 12.7378 13.3722 1.04947 -1.40785 1.7616 0.241774 -2.1046 10.5825 -8.14615
353 1 Ar 13.474 13.3672 0.198728 0.80161 -0.305113 -0.0238203 -16.2329 26.5574 6.3711
314 1 Ar 14.3721 13.0591 16.3391 -0.717262 -1.06537 1.21046 35.5061 14.4042 13.0164
320 1 Ar 15.6103 12.6264 1.06512 -0.921417 0.443017 -0.183851 -15.172 47.6362 -29.6797
355 1 Ar 14.3788 13.2928 0.659438 1.16699 0.204412 -1.04658 13.9398 11.913 13.0004
357 1 Ar 15.3758 13.2833 0.0658429 0.715984 0.614151 -1.06034 -3.09241 14.8484 1.38239
318 1 Ar 16.1621 12.574 0.123284 -1.34753 -0.37832 1.05852 -0.205958 3.39274 -9.8513
359 1 Ar 16.111 13.6228 1.03888 -0.43747 0.977531 0.531498 -29.7289 -16.6089 25.1838
322 1 Ar 0.773611 14.5316 0.309366 0.484808 -0.517265 1.20917 -7.73334 2.28651 8.23082
324 1 Ar 16.6911 14.4401 1.10252 1.2357 -0.126534 0.580269 17.6465 7.41415 -20.3169
361 1 Ar 16.6543 15.1236 0.181485 -0.497913 -0.11249 -0.159429 -0.775078 -1.1359 4.62188