ITEM: TIMESTEP
6200
ITEM: NUMBER OF ATOMS
4000
ITEM: BOX BOUNDS pp pp pp
0.0000000000000000e+00 1.6795961913825074e+01
0.0000000000000000e+00 1.6795961913825074e+01
0.0000000000000000e+00 1.6795961913825074e+01
ITEM: ATOMS id type element x y z vx vy vz fx fy fz
434 1 Ar 0.5545 1.36864 1.00988 0.186557 0.516606 -0.611476 -24.2269 -8.56234 -19.707
446 1 Ar 1.50429 1.28166 0.738009 0.36984 0.240868 -0.808683 28.8937 11.0221 -28.2869
3966 1 Ar 0.654519 0.367098 0.439881 0.650109 1.78035 0.0999931 -18.7212 15.27 0.670851
761 1 Ar 2.3645 16.6416 0.185185 0.558561 -0.23059 0.74736 14.6262 5.99709 -6.14751
91 1 Ar 2.7151 0.908286 16.7838 -0.158333 -1.60429 0.815305 2.85014 -13.6388 -9.38078
487 1 Ar 2.69192 1.30163 0.919824 0.102614 -0.0282115 0.849269 -18.262 -16.8985 19.773
12 1 Ar 2.32342 0.276506 1.15921 -0.402109 -0.090395 -1.66831 -2.51446 1.65109 5.61822
16 1 Ar 3.97278 0.525616 0.298692 2.42448 -0.560347 0.186541 12.7063 1.14808 -10.5913
93 1 Ar 3.41306 0.113573 1.04724 0.0386528 -0.429043 0.43359 -9.51943 -6.066 -13.143
1170 1 Ar 3.68533 1.21172 1.10484 -1.34461 -0.527988 -1.1817 -12.0094 -7.52887 -12.1446
457 1 Ar 4.87352 1.80176 0.190472 -0.289288 0.677314 -0.413372 -33.8277 6.89839 26.5735
14 1 Ar 4.57202 16.6118 0.921194 -0.778642 1.32566 1.62129 4.44631 -0.206063 -5.38949
460 1 Ar 5.3081 0.78693 0.48914 -0.0010282 -0.864925 0.904981 -17.1352 -1.28095 8.5672
375 1 Ar 4.68856 1.24728 1.23381 -1.30617 0.359531 -0.105267 26.7132 7.19851 -8.48613
64 1 Ar 7.28692 0.653436 0.910437 -0.416501 -0.382368 0.168403 2.49763 -4.71471 1.37425
456 1 Ar 6.28889 0.89135 0.205531 0.0897484 -1.53649 -1.26939 23.9667 8.42467 -21.4025
780 1 Ar 6.18259 0.468139 1.12568 1.77882 -0.076401 -0.319 -12.6411 1.42376 4.86452
3619 1 Ar 7.31904 0.118001 0.0441282 -1.66464 -0.282495 -1.26193 -4.03351 -6.71744 2.86345
57 1 Ar 7.73919 1.34407 0.230446 1.62376 0.231116 -0.428818 14.1833 -9.30175 11.0409
24 1 Ar 8.96724 1.10057 0.306984 1.33037 -1.05126 0.389673 1.33225 3.74123 -5.41163
384 1 Ar 8.42327 0.684988 1.08058 1.07593 -0.321252 0.0239547 -5.29622 -6.58787 8.51171
63 1 Ar 9.81248 0.893038 1.18245 0.96338 -0.307464 1.49793 -12.8274 5.44959 6.74725
505 1 Ar 10.6173 1.16565 0.556715 0.761554 -0.690145 1.11042 28.1304 -20.2893 11.5896
3627 1 Ar 9.80108 0.602091 16.594 -0.759631 0.739751 -1.63495 6.23644 -9.89443 11.1299
3625 1 Ar 11.586 0.78648 1.20208 -0.891238 0.397106 1.10523 -30.0667 1.77358 22.0795
3991 1 Ar 11.7085 1.07768 0.223555 0.0230437 -0.661909 0.790547 -14.2355 -7.09985 -29.228
473 1 Ar 13.67 1.48675 0.501684 -0.545519 -0.528821 0.569387 -23.7797 -11.9095 -24.025
34 1 Ar 13.4208 0.289361 0.514585 -0.598037 0.230606 0.436234 -11.663 11.1093 -8.07096
469 1 Ar 12.4873 0.840137 0.85895 0.796332 0.70554 0.362043 50.2601 2.37342 6.03735
79 1 Ar 14.9586 0.670397 0.375523 1.21611 0.566497 0.76279 4.46049 -11.7161 1.97255
35 1 Ar 15.0002 1.37867 1.12698 -0.373977 -0.341431 0.807408 -28.2569 11.7148 5.72894
800 1 Ar 13.898 0.987593 1.37893 0.517749 -1.37876 0.160761 11.8114 8.3228 -3.8262
437 1 Ar 15.9335 1.1064 0.828555 0.0861188 0.523138 -1.75306 19.9937 6.5221 -17.4989
438 1 Ar 16.3462 0.259058 0.331568 -0.98613 0.101065 -0.0730818 -1.00344 -18.3281 6.7467
764 1 Ar 15.6799 0.125569 1.21812 -0.715201 1.4146 0.568883 -3.83393 -3.7783 -10.5767
442 1 Ar 1.58828 2.78857 0.881049 -0.819499 0.353635 1.9532 9.66202 4.08179 -1.50471
481 1 Ar 0.930654 2.25317 0.310938 -0.0321826 0.822048 1.63952 -15.0393 -14.7245 6.11229
402 1 Ar 16.5999 2.1799 0.573431 -0.147657 -0.908555 0.648264 4.65516 -13.2103 5.76652
84 1 Ar 0.346338 3.09835 16.7098 -0.749105 -1.48865 1.32455 -6.36883 11.7113 5.38171
523 1 Ar 0.241794 3.06147 1.01204 0.474942 1.07203 -0.748159 -12.7359 2.45096 -10.4345
46 1 Ar 1.94835 2.09262 0.00487512 -0.775239 -0.425787 -0.496572 23.0432 -0.63639 24.2704
482 1 Ar 2.626 2.8499 1.21658 0.310499 0.239882 0.634675 -10.7076 1.49993 6.5776
489 1 Ar 3.03152 2.09004 0.442069 1.3009 0.238231 -0.377021 -39.1821 -33.9247 -28.7162
410 1 Ar 3.73858 1.51245 16.7592 -1.62159 0.44584 0.443545 10.2843 12.689 4.31999
413 1 Ar 4.2067 2.11356 0.899613 1.17527 0.0559074 -0.591465 -5.40317 12.7389 6.83405
529 1 Ar 5.28887 2.71454 0.704474 -0.0722462 1.15428 1.22722 -9.28812 -10.8292 -4.27816
454 1 Ar 5.60054 1.69536 1.67186 1.00649 0.740786 -0.191146 3.20128 -1.4819 9.13618
500 1 Ar 5.82002 1.76117 0.637202 -1.30135 1.29409 -0.260888 5.01182 0.0522303 -6.52318
3657 1 Ar 6.52764 3.00512 0.07359 -0.222459 1.2184 0.273892 -1.96926 -4.37767 2.65695
3659 1 Ar 6.91375 2.03281 0.288657 -0.836519 0.0681773 0.855288 -6.16664 -6.07817 1.56093
493 1 Ar 7.45947 2.57315 1.10759 -0.734037 -0.0488047 0.809843 -9.1186 -3.37706 14.6633
894 1 Ar 6.37866 2.52804 1.15483 0.288075 0.165956 -0.319685 -7.93498 -0.0185129 3.00629
379 1 Ar 8.35148 2.12249 0.840417 -0.715723 -0.422961 -0.113466 10.8326 -4.01332 -19.1625
54 1 Ar 8.28229 2.25256 1.88242 -0.663937 -0.409955 -0.874112 -24.4806 18.1983 -0.969053
58 1 Ar 8.94139 1.56724 1.56336 -0.494475 0.220701 0.446974 18.5359 -17.5886 -3.70609
25 1 Ar 9.90547 1.62503 0.0650804 -0.0590392 -0.484709 0.252081 -19.2436 19.9788 -22.45
68 1 Ar 9.46105 2.45746 0.542321 1.20904 0.830056 -0.816897 -10.7314 7.27044 4.52902
467 1 Ar 10.5197 2.40867 0.716522 0.114723 1.35651 -0.474181 9.24905 5.62128 -11.3976
862 1 Ar 9.96931 2.02235 1.48794 -0.688029 0.796737 0.0388821 6.5859 8.83498 -20.9837
108 1 Ar 10.3272 3.14849 1.66265 -0.501647 0.559634 -0.741092 6.91398 -21.6648 6.12301
466 1 Ar 11.3637 2.7217 1.33356 -0.786143 0.83247 -1.00208 3.76365 -8.17179 27.5485
912 1 Ar 11.4069 1.78566 0.904577 0.914509 -0.105431 -0.640559 6.39966 10.7498 1.20579
32 1 Ar 11.5096 2.80385 0.311401 1.31957 0.383758 -0.461168 5.35842 -14.5109 12.3388
31 1 Ar 12.5343 1.76459 0.373659 -0.182308 0.73239 0.914635 2.81552 9.85283 -6.03375
29 1 Ar 12.3863 2.51529 1.09578 -0.798513 -1.23637 1.1943 3.73202 6.99235 -2.76541
513 1 Ar 13.5747 2.87906 1.38606 -0.127917 -0.295832 0.316795 23.2651 6.74287 50.6206
71 1 Ar 13.3046 1.88337 1.38741 -0.0246377 0.944286 -1.20082 -17.5311 -4.59611 5.43314
3714 1 Ar 13.2652 2.69443 0.475842 0.3229 1.36745 0.343728 1.26455 -53.1344 -51.2816
36 1 Ar 14.2534 2.1499 0.995739 -0.350487 -0.315272 0.674837 11.1279 -12.8815 44.2301
441 1 Ar 16.5699 1.78171 1.60402 -0.116652 0.626504 0.627104 -5.8779 -12.5426 -5.92426
3674 1 Ar 15.2447 2.1318 0.477888 0.887698 0.963311 0.297747 4.8706 18.3821 12.2639
525 1 Ar 1.02841 3.63382 0.616585 0.845296 -1.31936 0.227554 -7.98801 -3.76691 7.18346
124 1 Ar 0.430121 4.4553 0.815037 -0.515041 0.812445 0.5822 -6.1065 7.73025 1.39399
524 1 Ar 1.41093 4.2841 1.61752 -0.296582 -0.00919393 1.65269 17.1553 -5.80896 -20.9695
486 1 Ar 2.06042 3.79987 0.822503 -0.248406 -0.938239 -0.701121 -2.67599 -7.83998 17.8401
565 1 Ar 2.57923 4.34553 0.00349175 -0.848124 -1.45895 -2.11987 26.6517 0.620934 -14.18
48 1 Ar 2.4359 3.04771 0.0269342 0.401875 -0.213293 -0.0686407 -0.646368 5.01308 4.94962
893 1 Ar 3.07644 3.89087 0.8186 3.09695 -0.83099 0.458802 16.8429 -4.0338 11.9441
92 1 Ar 3.50138 2.85841 0.680474 -0.115952 -1.35585 1.62094 46.1821 69.7009 20.2837
3689 1 Ar 4.32036 2.78405 16.776 -1.43957 1.33364 0.308009 0.722617 3.60545 8.84464
133 1 Ar 4.49678 3.3169 1.30247 -0.256009 -0.47881 0.0106491 5.98455 -9.98999 1.2553
129 1 Ar 4.13853 3.9569 0.536895 -0.123649 -0.125109 -0.0521081 -1.19641 -2.4209 -10.0919
3692 1 Ar 5.66581 3.51694 1.19749 -0.196917 0.794094 -0.853164 20.3071 23.3243 -6.23681
3731 1 Ar 5.28172 3.99152 0.397843 1.92091 -0.198349 -0.814109 -17.5362 13.6348 9.40789
90 1 Ar 6.35159 4.58051 1.37325 -0.483022 -0.943257 -0.802863 8.72438 -9.29715 -36.116
136 1 Ar 6.85854 3.47316 1.34596 1.08253 0.48888 0.951188 -12.3606 -15.2538 -24.6065
534 1 Ar 7.44749 4.35056 0.475647 -0.819273 -1.09924 -0.00204143 4.74034 -3.23944 -0.594403
61 1 Ar 8.68351 3.36115 0.910791 -0.722631 -0.333907 -1.58901 11.0956 -5.73635 -1.77771
494 1 Ar 8.47736 4.81705 1.18425 0.795991 -1.67324 -0.240879 -9.22565 11.8351 -4.05091
898 1 Ar 7.88451 3.84587 1.3941 -1.12148 2.18243 -0.319812 0.902349 1.83249 -2.30384
98 1 Ar 7.76935 3.19627 0.34416 0.281092 -2.53993 0.191016 -4.73472 10.0138 -11.5315
102 1 Ar 9.93011 4.81312 1.45232 0.609752 -0.352102 -0.801434 -9.91301 5.67801 -7.79505
3704 1 Ar 9.81762 3.7288 0.934927 0.390668 0.899521 -0.53103 -2.31979 5.06759 -3.93496
112 1 Ar 11.0068 3.60226 1.00477 -0.260801 -0.777115 0.648392 -2.07882 4.80687 -24.5231
76 1 Ar 11.5261 3.73098 16.7569 0.412585 -0.102103 0.645781 -19.0168 16.5704 -11.2331
75 1 Ar 12.0409 3.55048 0.861822 -0.0744988 0.379914 -0.751771 14.5725 -35.7592 13.9491
3747 1 Ar 12.3025 4.28616 16.4501 0.0690844 0.0897043 -0.449257 1.25473 8.98154 6.28612
73 1 Ar 13.0878 3.56449 0.848 0.751457 0.208942 0.427495 -15.2858 39.2323 12.8855
546 1 Ar 12.0445 4.34825 1.71136 0.0385545 0.506106 -0.306685 -8.58775 -23.8021 3.78593
146 1 Ar 13.2121 3.94195 16.7243 0.641995 0.836595 -1.05323 9.26911 -8.39626 -6.83448
553 1 Ar 14.6554 3.11969 0.964061 -0.0965546 -0.365986 -0.000217813 12.0813 -4.06396 6.68256
114 1 Ar 14.1921 3.85483 1.61798 0.48106 0.879965 1.44296 -0.39407 2.54809 3.68959
109 1 Ar 14.2604 2.5002 0.0989292 0.339983 -1.39346 1.50192 -17.1367 31.0393 -35.31
153 1 Ar 14.2088 3.7105 0.261262 -0.0995796 -0.288382 -0.266229 -8.80431 6.16773 -12.7014
120 1 Ar 16.4025 3.80086 0.368873 -0.973918 0.933357 0.826118 19.4205 -4.94225 15.6877
3683 1 Ar 15.7911 3.08208 0.900391 0.513142 -0.81601 0.110059 -11.8619 -11.6075 15.6616
81 1 Ar 15.3501 4.20754 0.435017 -1.22852 -0.458827 -0.0111792 -9.51296 3.34302 19.9043
163 1 Ar 1.84384 4.80333 0.52667 -0.118026 0.812455 0.432836 -20.1336 13.4032 8.7481
200 1 Ar 0.24831 5.52261 0.882683 -1.3576 0.319078 0.976402 -8.26073 6.78355 4.4172
3725 1 Ar 0.781837 5.2505 0.0459377 -0.542861 1.68043 1.4804 20.8582 -21.4915 0.566437
522 1 Ar 2.57331 5.6031 0.184015 0.839927 0.507361 -0.954561 -21.2226 -17.5198 -10.5997
157 1 Ar 2.83931 4.93548 0.988213 1.58377 -0.299172 -0.954531 -14.5823 5.8982 11.8515
173 1 Ar 2.27096 6.07396 1.10199 0.126443 0.598946 -0.41969 11.5856 -11.5517 3.7814
3726 1 Ar 1.30586 6.01996 16.3372 1.03518 -0.169238 -0.247482 -22.9063 -5.56687 0.657787
3775 1 Ar 4.60621 4.87778 16.648 0.155968 0.466505 -0.549542 -16.1531 11.075 11.1019
132 1 Ar 3.48421 5.07786 0.246843 0.870234 0.0159391 1.50063 26.2464 0.448551 -22.7454
3772 1 Ar 3.59281 5.80218 1.21226 -0.440705 -0.239213 0.910423 -3.07576 -9.39371 -34.502
3732 1 Ar 4.34014 4.9063 0.942655 0.162506 0.59437 -0.357354 3.8905 8.44951 7.0262
130 1 Ar 5.55073 5.30397 1.02512 -0.64291 -0.481043 -1.88417 37.9143 -23.2746 -32.7939
174 1 Ar 4.828 5.80636 0.503795 -0.683035 -1.27728 0.700058 -15.2245 4.93926 4.71254
3375 1 Ar 5.79598 6.00961 0.114534 -0.148064 -0.202213 0.902122 -13.3096 -8.40699 7.29942
573 1 Ar 6.70553 5.56681 0.300915 -0.161139 -0.493061 0.545608 5.14822 -6.63245 16.5393
974 1 Ar 7.34485 5.1864 1.12861 -0.544271 0.417869 0.523406 1.5398 4.32384 8.03448
977 1 Ar 8.24892 5.83691 1.71641 1.20634 -1.39503 0.786624 -7.69292 -20.2829 -6.79473
539 1 Ar 8.77143 5.39921 0.324291 0.769689 0.208228 -0.637711 6.66997 9.25059 4.35839
544 1 Ar 9.82861 5.68612 0.518111 2.09535 1.96324 0.199705 -10.6386 -11.8619 -7.94223
138 1 Ar 10.6455 4.33948 0.333055 0.546768 -0.312742 -1.1498 5.42904 5.5222 -1.01107
145 1 Ar 11.521 5.17268 16.7373 -0.0733919 0.934765 -0.8863 37.8573 -21.268 -34.7804
506 1 Ar 11.891 4.5037 0.732011 0.223236 0.0198707 0.0983087 -20.9117 12.0058 -36.7491
148 1 Ar 10.88 5.46737 0.584559 0.455477 -2.41806 -0.710662 -30.6633 16.0255 43.6549
189 1 Ar 13.0541 4.65389 0.707196 1.11512 -1.30798 1.25955 -23.6777 5.19835 -9.96008
950 1 Ar 12.2341 5.37303 1.04897 0.890441 1.85341 0.106397 4.91273 30.6925 6.99835
151 1 Ar 14.0623 4.64381 0.78286 0.492534 -0.347614 -0.371635 10.9052 -10.6216 6.63173
559 1 Ar 14.3728 5.62829 0.739025 1.34088 -0.446921 0.14378 -7.29723 -6.49595 22.2395
117 1 Ar 15.0244 4.77608 1.30273 -0.306828 0.433226 -0.823251 -12.6419 -3.37309 -9.46266
560 1 Ar 15.4082 5.77068 1.3907 -1.04796 -0.538016 -1.07663 0.0312876 4.90962 6.69137
155 1 Ar 14.3425 5.00879 16.5854 -0.756677 -0.377061 -0.277329 -9.85151 -9.51502 2.15793
159 1 Ar 15.1873 5.45013 0.183655 -0.407317 -1.21258 -1.46444 38.7932 -28.0618 -5.94778
561 1 Ar 16.5457 5.08852 16.7117 0.222836 0.715714 -0.758193 4.41064 -2.7383 14.3276
121 1 Ar 15.989 5.05316 0.898963 0.095468 0.91393 -0.673539 11.3788 -5.44925 -4.33247
602 1 Ar 1.09642 6.98197 16.7741 0.00100559 -0.0664299 -1.23543 0.216929 -2.48653 3.05691
609 1 Ar 1.6326 6.82399 1.38749 -1.15292 0.965776 -0.879001 -7.40841 16.8121 3.98301
922 1 Ar 0.626175 6.86904 1.03151 0.800038 1.00283 -1.10494 -1.33662 3.70189 -4.94878
564 1 Ar 1.21346 6.08312 0.684919 0.701131 0.310695 -0.0937258 8.56409 -2.44742 -8.90649
126 1 Ar 2.16378 6.94051 0.440066 -0.0981084 0.011452 0.0810833 -9.57149 -18.028 -9.20324
167 1 Ar 1.35721 8.01203 16.7462 -1.60059 0.484203 -0.00381984 -21.2063 6.61701 4.33544
1010 1 Ar 2.20819 7.71695 1.1048 -0.400422 -0.959226 -0.584788 -3.388 1.2751 13.6103
566 1 Ar 3.15435 6.41005 0.286273 0.822915 0.268492 -0.353744 -4.20706 4.13475 42.8648
620 1 Ar 4.22462 6.6522 0.889384 -0.175935 0.903468 -1.01327 0.0319796 4.25179 1.95519
3016 1 Ar 4.12429 7.80074 0.72242 1.2742 -0.589283 -0.676162 -12.4378 4.18778 0.535701
171 1 Ar 4.1152 7.10795 16.6769 0.0983491 -0.39266 0.696736 18.7686 22.0253 17.88
3817 1 Ar 5.66301 6.33448 1.15279 -0.0105565 0.102567 1.48322 -5.86502 15.5722 -4.28495
3774 1 Ar 5.21525 6.86549 0.18108 -1.00464 0.936671 -0.307051 -14.9587 3.17555 2.95393
653 1 Ar 5.08807 7.36949 1.26362 0.600628 0.647311 0.552554 -22.4745 -12.1193 -39.1391
3779 1 Ar 6.15254 7.31624 0.881868 -0.724129 -0.85824 -0.648675 0.382311 0.383804 23.2445
3780 1 Ar 7.32175 6.7211 1.23237 -0.646593 -1.28808 -0.200901 -4.05583 13.8505 14.4304
141 1 Ar 7.22501 7.71526 0.527345 -0.403752 1.30595 -0.610495 0.305311 1.80694 5.47711
3740 1 Ar 7.32305 6.57415 0.237337 -0.173727 0.0114949 0.106234 8.88659 -20.8542 6.30939
585 1 Ar 9.26114 6.5366 1.41161 -0.141171 1.10509 -0.468395 -9.44155 -9.8845 0.917702
219 1 Ar 8.25741 6.41109 0.787945 -0.520968 0.53559 -0.25586 1.63823 -0.422299 1.52014
3785 1 Ar 9.04673 7.4496 0.768854 -0.268765 1.0635 -0.594258 -7.13632 10.3129 19.9455
545 1 Ar 10.2495 5.88384 1.47889 1.36139 -0.369023 0.147742 -6.53363 -13.413 8.24153
3836 1 Ar 10.2585 6.61133 0.713007 0.081594 0.0549539 0.753525 -6.18116 18.7137 -10.7739
183 1 Ar 9.18605 6.57651 0.303891 -0.262845 0.938497 -0.664445 6.81352 -20.2174 -18.5689
192 1 Ar 11.119 6.38816 1.2388 0.833184 0.215668 0.287955 24.4683 5.562 4.89252
229 1 Ar 12.1129 7.63856 1.03229 0.700564 1.96536 0.212125 7.12832 -0.990058 2.46778
3757 1 Ar 12.5504 7.74827 16.7539 0.993995 -0.764881 0.222745 -4.55559 7.51643 8.76996
187 1 Ar 11.8752 6.63231 0.38107 -0.287375 -1.90517 -0.188584 0.744531 -2.22425 -2.99053
190 1 Ar 13.2543 5.8342 0.93778 0.677249 -0.146272 0.214797 7.74824 4.3024 -13.5871
595 1 Ar 12.9675 6.8257 0.411645 -0.348428 -1.18129 0.0204967 -7.1748 11.4444 -7.49425
193 1 Ar 13.8857 7.53789 0.613303 -0.00763909 0.742517 -0.455824 9.73382 -16.0929 -9.08745
554 1 Ar 14.8285 6.37355 0.0632043 -0.608168 -0.837273 0.846803 23.455 19.3107 -17.5006
960 1 Ar 14.6963 6.52628 1.20433 0.377472 0.719126 0.0854878 -8.49467 14.0925 -13.3264
149 1 Ar 13.8851 6.39603 0.300355 -1.3045 -0.392773 0.0875395 -27.5053 17.5841 -2.3218
518 1 Ar 15.8364 6.25484 0.498685 -1.01812 0.789571 0.18197 -1.56727 2.41106 -8.20439
158 1 Ar 16.4938 7.13442 0.588024 -0.527104 -0.498593 0.542199 -4.7031 1.92085 -0.803735
3790 1 Ar 15.103 7.31501 0.522324 -0.0071412 0.348749 0.208285 1.71149 -13.8647 -0.876847
597 1 Ar 15.6996 7.02779 1.55363 -0.320365 0.537754 0.390133 1.66282 -11.2328 -13.564
201 1 Ar 0.75962 8.72232 0.683389 2.59547 -0.318048 -0.256161 -26.4026 -10.9395 -1.2651
568 1 Ar 0.44214 7.97744 1.59226 -1.02511 0.837816 -0.193916 2.61074 1.67716 -2.95527
207 1 Ar 1.60348 8.55768 1.19419 -0.44499 -0.196684 -0.307185 19.7713 -10.2874 -3.21206
209 1 Ar 2.30775 8.19457 0.19642 0.482672 -0.463181 -0.431703 21.1595 13.5804 -5.75516
170 1 Ar 3.05414 7.47392 0.41927 0.74603 0.0376518 -0.61867 19.2558 12.1284 -23.4564
243 1 Ar 3.15405 8.14194 1.25078 1.72029 -0.268619 -0.132559 6.19116 10.3426 -52.2693
216 1 Ar 4.23089 8.41535 16.5764 -0.22251 -1.29223 -0.905236 6.02775 -21.389 -12.0168
651 1 Ar 5.07743 7.93785 0.353559 -1.37405 0.110322 0.354208 20.2755 -2.30959 -12.6934
297 1 Ar 5.80017 8.51903 1.33844 0.641366 0.715161 -0.978042 4.20654 9.84259 -9.9126
3451 1 Ar 4.74279 8.80779 0.806126 0.542993 0.721178 0.619465 -27.1787 -6.59672 20.5479
3819 1 Ar 6.22411 8.2821 0.380758 -0.955018 -0.357119 -1.92969 7.5131 -6.82895 -2.7372
218 1 Ar 6.97652 8.94716 0.847131 -0.0724804 -0.000760145 -0.172355 0.571396 -11.3487 8.78637
224 1 Ar 8.22906 8.29785 0.329201 -0.247382 0.788933 -0.362509 53.7725 -64.2443 39.2757
184 1 Ar 9.07597 8.5159 1.04405 -0.915263 0.145525 1.2854 0.262885 13.9735 -9.16861
223 1 Ar 7.56426 8.85421 16.7883 -0.314896 -0.0161942 0.247542 -53.5486 50.1034 -33.5599
586 1 Ar 10.1006 7.84387 0.222387 -0.958777 0.0250736 1.08526 31.7259 -22.244 18.6936
625 1 Ar 10.017 9.12561 1.12698 -0.79286 -0.40746 -0.384174 -20.4216 11.9129 -16.7321
3787 1 Ar 9.70291 8.74592 0.135836 -0.841739 0.149957 1.46773 -18.335 14.6957 -5.05271
3796 1 Ar 11.6534 9.56095 1.29875 -0.171024 0.669265 0.592091 -1.92647 -4.18944 7.80885
669 1 Ar 10.9504 8.56073 0.600947 -0.104438 -0.830001 -0.774024 -4.98732 2.94082 3.56242
186 1 Ar 11.1933 7.48952 0.508033 -0.548762 -0.585193 -0.605397 -4.59527 -6.26195 -28.1934
195 1 Ar 12.0381 8.72591 0.675495 -0.115233 -0.037167 0.139031 3.72437 -0.203508 5.54488
197 1 Ar 13.0445 8.50379 0.528057 0.917455 0.789794 0.996967 7.66366 1.3812 -0.92775
636 1 Ar 12.7379 9.06835 1.48563 -1.98895 0.518984 -1.01325 12.4219 -13.2547 -2.33726
3831 1 Ar 13.6463 9.1858 0.00900928 0.478863 0.0483472 -0.0516365 -6.34645 14.6773 -5.68222
3753 1 Ar 13.5302 7.34071 16.2931 -0.409527 -0.971628 0.934626 0.281142 -6.57677 2.62039
237 1 Ar 14.5535 9.22261 1.05679 -0.0769219 0.191729 -0.804084 30.4352 12.0217 -21.0953
3798 1 Ar 14.9953 7.82852 1.4571 -1.36273 -1.30312 0.217033 -3.23732 10.0956 -1.95451
603 1 Ar 16.1098 8.13417 1.23896 -0.498856 1.17821 0.035485 -6.65801 -15.7687 6.60606
3439 1 Ar 15.1932 8.34366 0.52018 -0.88041 -0.0602957 -0.793433 -2.84073 20.2906 2.79046
3808 1 Ar 16.253 8.85191 0.494085 -1.68026 0.499417 -1.33971 10.5657 4.50493 -13.0438
279 1 Ar 0.317825 10.5093 16.6309 -0.12325 -0.639008 1.44006 0.177148 10.0772 7.26014
717 1 Ar 0.526345 9.5364 0.0872148 1.11843 -1.36712 1.15913 -9.10145 -3.68207 -4.07994
641 1 Ar 0.598322 9.94754 1.24639 -0.0643135 -1.64959 -0.972626 -4.82005 4.49563 -6.58817
608 1 Ar 1.53202 9.34471 0.349993 0.0695378 -1.29447 -0.172462 22.2515 -53.9872 -25.6117
612 1 Ar 2.60432 9.10084 0.744132 -0.585893 0.825768 -1.30847 -39.4357 8.44285 24.0898
647 1 Ar 2.31696 10.4396 0.954656 0.0458438 -0.688626 1.2902 12.6618 -10.8232 1.10627
649 1 Ar 3.52717 9.56972 1.22854 1.05336 2.11485 0.422096 -13.9363 -9.23793 -16.7403
3816 1 Ar 4.35117 9.40083 0.0170647 1.41005 0.648969 -0.296883 -34.7138 -5.50783 -26.2465
3856 1 Ar 3.23794 10.8343 0.400162 -2.27314 0.589767 0.212031 -6.30659 2.46768 9.56143
291 1 Ar 3.046 9.83898 0.152851 0.143689 -0.915136 -0.116016 1.1386 -2.96392 -2.99114
689 1 Ar 4.12795 10.487 1.03206 0.339946 0.0313255 -0.323129 1.62739 7.23909 -3.19448
217 1 Ar 4.91811 9.89247 0.619425 -1.34733 0.826777 -0.159395 30.6093 28.4019 30.203
655 1 Ar 6.13432 10.1308 0.11958 0.374046 0.108921 -0.261937 -24.7195 24.8779 -25.8652
253 1 Ar 7.46244 9.73039 1.79611 1.60128 0.507508 -0.844405 16.9401 7.24229 1.69985
3815 1 Ar 5.55292 9.10056 0.327141 -1.05779 0.115802 0.208477 20.4057 13.282 -9.89043
258 1 Ar 7.00938 9.96937 0.596639 0.76408 -0.204425 -0.409361 10.298 -4.19874 7.77695
665 1 Ar 8.17175 9.55315 0.848089 1.30582 -1.01756 -0.164295 3.61493 11.6251 -16.3817
668 1 Ar 8.8665 10.464 1.24804 -1.23904 0.767856 -0.923673 -5.9718 -2.29032 -9.48757
222 1 Ar 9.31175 9.6968 0.429669 -0.286632 -0.199068 -0.348649 -2.23343 -29.992 30.3648
626 1 Ar 9.86618 10.4186 1.50953 1.2347 -1.36251 0.995437 -7.37653 -1.04094 -7.3829
672 1 Ar 10.6976 10.179 0.793423 0.796165 1.30026 -0.510615 -11.7392 -14.8421 -12.8976
996 1 Ar 11.6825 10.532 0.867943 2.42526 -0.334476 1.32514 2.22953 2.07476 3.78783
227 1 Ar 11.5234 9.54102 0.21665 0.424613 -0.937937 0.849535 1.26983 9.58483 -5.10335
267 1 Ar 10.8452 10.5623 16.598 -0.638305 -0.234493 -1.92609 -0.651546 -0.165039 0.121134
194 1 Ar 13.6214 9.61954 1.02507 1.08713 0.289888 -1.32688 -26.9079 4.9451 -13.3332
273 1 Ar 12.6684 9.631 0.556252 0.895062 0.608106 0.345119 -7.03549 3.27688 -10.7281
353 1 Ar 12.6095 10.0898 1.5485 0.440925 1.36039 -0.931621 0.0661918 16.8375 4.97189
3835 1 Ar 13.0049 10.846 0.122382 0.541508 0.182101 -1.67455 17.6152 4.91206 6.26266
311 1 Ar 14.4354 10.3512 1.23755 0.913622 0.123511 -0.138278 -4.69022 31.2223 -34.1854
3435 1 Ar 14.1835 10.1087 0.204516 -0.43866 1.29127 0.757981 2.69043 4.10279 -3.85501
199 1 Ar 16.1775 9.97328 1.12094 -1.43921 1.65053 0.433866 10.2437 -5.95494 -10.2874
3795 1 Ar 15.2863 10.1513 0.628889 0.60115 -0.42078 -1.10696 -12.1335 -23.4097 -23.573
277 1 Ar 16.007 9.93109 16.6026 0.288365 0.526316 0.894126 2.12446 1.71237 1.82663
720 1 Ar 15.5709 9.12979 1.20887 0.559953 -0.463004 -1.33331 -0.0518326 -1.19571 10.262
212 1 Ar 1.36958 10.2912 0.357862 -0.883386 0.506152 0.960317 -18.5119 31.1246 10.4587
687 1 Ar 0.50362 11.1125 1.38433 0.328994 -0.34012 -1.37052 15.0714 0.242495 -2.90955
685 1 Ar 1.26367 12.1108 0.857407 -0.307592 0.673864 0.812757 -37.8181 -10.7944 -32.7646
241 1 Ar 0.147913 11.6438 0.338327 -0.116344 -0.89184 0.885263 33.465 3.29612 5.79699
245 1 Ar 2.17747 11.6073 0.6929 -0.669922 -0.278602 -0.689314 5.04351 -21.1417 -0.151083
696 1 Ar 3.8811 11.6449 0.444681 -0.871708 -0.312597 -1.3541 17.1485 7.07926 4.4839
249 1 Ar 3.01545 12.2272 0.844192 -0.512507 0.293018 0.00945966 9.76668 -3.87609 16.8607
3893 1 Ar 3.0217 11.8359 16.6969 0.411871 -0.503361 0.161634 -11.0069 -4.68858 -22.2187
1089 1 Ar 4.78499 12.0168 0.921678 -0.0659873 1.52459 0.87636 -0.51794 -6.8481 -7.97035
250 1 Ar 5.90199 11.459 0.155273 -0.313219 0.185996 0.0227778 3.07923 4.79464 8.64478
3895 1 Ar 5.18171 10.9794 0.756871 -0.274741 0.147137 -0.0441114 -5.60344 -4.44168 6.55013
3860 1 Ar 5.19056 10.5613 16.5049 0.565838 -0.668267 0.326298 3.58284 -3.33743 11.5119
294 1 Ar 6.70929 11.0189 0.714442 -0.61572 -0.197554 -1.239 -6.56838 -29.5879 -0.559961
257 1 Ar 7.74111 11.5784 1.25236 2.06184 0.0302296 -0.604529 5.32557 6.81228 21.5318
293 1 Ar 7.88713 11.4524 0.244474 -0.0977015 -1.60989 0.234599 9.74689 -2.46652 -11.1025
3904 1 Ar 7.76501 10.5462 1.03043 -0.934421 -1.13136 -0.422202 5.89999 1.62505 -2.12252
3867 1 Ar 8.8432 11.6101 1.2242 -0.0660323 0.0433568 -1.2199 8.40552 -23.8314 -19.2865
232 1 Ar 10.0011 11.5977 0.823747 -0.640693 -0.695185 -0.812195 -3.7011 0.639882 6.13218
3823 1 Ar 9.72566 10.5702 0.285702 -1.23473 0.401636 1.17959 15.8079 25.9378 -0.894232
300 1 Ar 9.09339 11.453 16.7386 0.616627 -0.725053 -0.611822 -5.30336 -0.0400714 12.7399
309 1 Ar 11.1551 11.5542 0.813712 0.519225 1.08144 -1.23545 3.25841 -5.63602 4.07419
3866 1 Ar 11.6095 12.3491 0.0763796 0.0763434 -0.544463 0.158857 7.90931 -0.358186 -0.884508
270 1 Ar 12.4603 11.234 1.04556 -0.531276 -0.676546 0.226638 4.08252 -1.01828 7.94949
3949 1 Ar 13.8992 11.5364 0.371808 -0.126133 -0.252809 1.51643 -10.2253 -1.46099 10.4457
351 1 Ar 12.1625 12.2537 1.32172 0.28873 1.37673 -0.680606 0.972773 -3.7737 -11.0138
671 1 Ar 13.5118 10.9021 1.22274 0.0442774 -0.345481 0.276108 -1.47706 -6.83149 -0.546579
670 1 Ar 14.6297 11.5721 1.15736 0.0205568 0.468905 -0.303552 -11.0629 -8.1869 2.77666
3876 1 Ar 14.9088 11.0649 0.16466 -0.523683 -1.18201 0.554903 8.42117 -26.0245 31.7523
315 1 Ar 15.4524 10.8888 1.27612 0.183581 -0.152337 -0.00506791 -8.23103 7.71591 20.3674
319 1 Ar 16.3355 11.3746 1.16285 -0.149754 -0.095049 -0.350787 -0.413221 10.2805 0.55045
318 1 Ar 16.0165 12.1239 0.399867 -0.829792 0.298873 0.282583 -16.5124 8.97521 15.0026
275 1 Ar 16.1718 11.0667 0.0876619 -1.47296 -0.295706 -0.0222968 -3.62984 -29.0858 10.2838
692 1 Ar 1.14469 13.2798 1.21932 0.487812 0.198027 0.929696 6.89593 -32.2743 -7.88465
321 1 Ar 0.382507 12.6535 0.677588 0.553306 0.283849 -1.14979 -13.6603 -16.8984 5.23516
288 1 Ar 1.27654 12.9839 0.157628 -0.422338 -0.372072 1.0082 -6.49039 -5.38077 32.2701
766 1 Ar 2.21562 12.8234 0.683747 -0.629905 -0.715306 0.985246 -11.1451 19.6883 -20.8187
3892 1 Ar 2.86168 13.1147 1.54278 -0.0708183 -0.459331 1.01945 0.784835 -0.158208 -21.8798
3925 1 Ar 1.9848 13.8502 1.07383 0.199773 0.733317 0.844792 -5.65413 -46.3798 -30.0228
1090 1 Ar 3.91618 12.4574 1.29648 1.70627 -0.447686 -0.365923 -0.15848 19.036 5.13522
1456 1 Ar 4.40544 12.9059 0.342127 -0.230097 -0.412353 -1.54287 11.4524 15.8614 22.5799
690 1 Ar 4.27436 13.51 1.32117 0.614614 -0.0954543 -1.06758 4.66545 -25.2149 48.6994
729 1 Ar 3.02384 13.0246 16.6258 -0.149474 -0.698504 -0.657823 -23.5887 -22.705 21.213
3967 1 Ar 3.76299 13.6194 16.3692 -1.29953 0.197729 -0.494685 5.41933 21.6363 6.55995
332 1 Ar 5.31509 13.2773 0.960445 0.221541 -1.45468 -0.165736 -9.68716 9.7889 9.63376
3900 1 Ar 6.96389 11.9705 0.679242 0.180811 -0.561844 -1.0568 -8.49661 8.55138 15.6552
700 1 Ar 6.64373 13.1864 1.31627 -0.633025 -1.34208 -0.315692 11.3395 3.4296 19.3942
1094 1 Ar 6.13991 12.8299 0.553796 0.888193 -0.642152 0.503686 -8.3936 5.24253 -21.3604
295 1 Ar 8.66177 12.4849 0.258354 -1.44464 -0.421013 0.273317 -1.0541 -5.66006 -1.36475
302 1 Ar 7.64726 12.6986 0.718292 0.265752 -0.181041 -0.537202 16.6648 19.0535 2.81151
662 1 Ar 8.53755 12.5098 1.49543 -0.549233 0.340808 1.17327 0.510682 25.7616 -1.36733
707 1 Ar 9.80799 12.8796 0.903231 0.094818 1.97469 0.887816 -19.7105 -10.5673 10.3101
705 1 Ar 10.6042 12.6371 1.6107 0.256918 -0.403737 0.364712 -20.396 -8.58009 -14.9164
305 1 Ar 8.82849 13.4021 0.80512 1.0859 -0.999243 0.295816 15.7061 -5.42486 -20.4251
749 1 Ar 10.2464 13.7486 1.15612 0.240367 0.557525 1.22596 12.2494 13.0976 -13.6979
3512 1 Ar 10.656 12.44 0.47324 -0.659241 -1.17248 0.3007 1.19459 1.98479 2.85406
385 1 Ar 12.08 13.3338 0.66353 0.320259 -1.13978 0.261105 25.9252 -5.35213 8.2324
354 1 Ar 13.0876 12.7909 0.962812 -0.0317705 0.808758 0.720695 -14.8758 5.41489 -4.01017
316 1 Ar 12.3971 13.1226 1.83179 -0.433005 -0.0878722 -2.05185 -2.37269 7.61758 -21.237
3912 1 Ar 13.1819 13.6191 16.7561 -0.596862 0.303512 -0.553661 3.73201 7.07354 8.20773
3959 1 Ar 14.0817 12.5259 0.954 -0.326881 -0.283883 -0.76757 16.8018 -15.2476 2.52221
393 1 Ar 13.6323 13.7408 1.22436 0.693545 0.0231178 0.15267 -7.46984 2.38608 -6.88514
39 1 Ar 14.4968 13.5066 0.329954 1.27114 1.29312 -0.0186083 -0.427846 1.6377 2.64675
278 1 Ar 14.9246 12.3558 0.230512 0.274938 1.05129 0.90597 5.39728 -5.34942 15.0151
3515 1 Ar 13.9054 12.6512 16.7573 -0.00434056 -0.365264 -0.603218 -10.5654 7.70132 -10.2552
317 1 Ar 16.1811 13.145 0.815844 1.07635 -0.00189291 -1.09982 22.6212 -16.9487 14.6383
3924 1 Ar 15.5492 13.2353 0.0414832 0.0754872 -1.89382 0.318904 -11.8886 6.70209 -15.0022
677 1 Ar 16.7558 13.6296 1.6308 0.228814 0.0155451 -0.641978 9.92416 -1.29857 -10.6838
368 1 Ar 0.424387 13.6508 0.586976 -0.391164 -1.07264 1.32832 39.1532 5.9271 2.2212
325 1 Ar 0.0649067 15.0854 0.669685 0.881969 -0.341189 -0.7913 14.6513 -3.61645 -6.66531
362 1 Ar 1.02769 14.7592 0.258133 0.714398 -1.41174 -0.505668 -9.42822 -17.8967 59.1467
686 1 Ar 2.81863 14.0769 16.6474 -0.586222 -0.237177 1.40893 -5.34024 3.51526 7.72208
367 1 Ar 2.78185 14.2203 1.434 0.923824 -1.11993 0.789077 42.1797 16.7798 21.1369
361 1 Ar 1.93243 14.8487 0.892957 -0.37164 -1.80051 0.176946 8.08962 2.95199 -12.5972
17 1 Ar 3.07314 14.964 0.531096 -1.40953 0.647678 0.536002 -21.8562 -10.1366 -11.2492
762 1 Ar 3.56875 13.5701 0.670236 -0.554042 0.0607772 0.0417967 -38.1728 5.59781 -29.2179
773 1 Ar 4.00566 14.7661 0.0489337 0.50694 -2.37786 0.0999925 5.61001 -23.9604 6.30145
3575 1 Ar 5.41925 14.2149 1.5235 0.713928 0.362005 0.184857 3.82203 -2.97188 16.6372
740 1 Ar 5.36399 15.0311 0.848334 0.326703 0.606568 0.61549 -1.23238 6.36438 -13.365
3977 1 Ar 5.96451 14.1364 0.629739 1.16666 0.741146 0.359605 14.4913 3.79276 4.08049
3580 1 Ar 4.67995 14.1667 0.757121 0.155395 0.76979 0.579327 15.8823 34.8498 -34.4421
733 1 Ar 7.00412 14.4182 1.04122 0.502124 -0.0345855 0.471835 -23.9101 1.32061 8.39945
694 1 Ar 6.98347 13.6135 0.323168 -0.492274 1.56978 -0.862682 -5.01841 -6.40405 0.687598
747 1 Ar 8.856 14.5307 1.29319 0.0517129 -0.507624 0.937375 2.30364 -25.4964 -15.8131
337 1 Ar 7.80794 14.9282 1.4282 1.13237 0.763627 0.256777 13.8354 -1.07173 11.8897
3940 1 Ar 7.90363 14.1556 0.630952 0.209373 -0.3157 1.1443 14.8839 -1.97857 -12.3791
342 1 Ar 9.79245 14.6935 0.651051 0.491187 -0.593635 0.635305 -40.1132 -8.38478 -2.05214
788 1 Ar 9.95347 15.5184 1.20276 1.07411 -0.121165 0.138763 -9.51263 29.1465 22.3561
3951 1 Ar 11.0168 14.9338 1.40037 -0.387753 -0.119189 1.32319 2.84543 -13.3735 -14.564
345 1 Ar 12.0385 14.9358 1.88778 0.569145 0.271239 -0.402322 1.06686 4.78915 3.00458
350 1 Ar 11.8041 14.4304 0.637922 0.156638 0.233724 0.0748781 -28.6056 -28.137 2.90518
790 1 Ar 13.5887 14.7415 0.534799 -0.547281 2.10803 0.690146 4.67847 -18.2157 -7.35353
387 1 Ar 12.637 14.2361 1.31883 -1.32036 1.39042 1.18462 0.469083 -11.446 -5.8657
355 1 Ar 13.3004 15.1372 1.44108 -1.36146 0.544648 0.888906 7.80929 -5.02404 13.6026
3633 1 Ar 12.438 15.1404 0.850081 1.13184 0.338655 1.84207 17.2247 41.2216 -5.54934
681 1 Ar 14.5281 14.4967 1.03923 -1.389 -0.367809 -0.20532 0.018157 -6.47195 4.28799
282 1 Ar 16.3916 14.1014 0.421419 0.0616451 -0.510752 0.335998 -39.8778 26.0613 -11.7132
398 1 Ar 16.6056 15.0911 16.3871 0.207771 -0.0346869 0.638412 -3.70492 -0.498199 11.5969
357 1 Ar 15.4326 13.8163 1.00615 -0.189232 -0.968747 0.450872 -12.4289 21.5708 -17.7373
758 1 Ar 16.3354 14.5879 1.38942 0.216336 -1.77275 -0.611096 -27.5176 -9.3559 4.5956
722 1 Ar 15.6761 14.932 0.598933 -0.0750351 -1.29333 0.870302 6.10635 -23.2126 2.4611