ITEM: TIMESTEP
6400
ITEM: NUMBER OF ATOMS
4000
ITEM: BOX BOUNDS pp pp pp
0.0000000000000000e+00 1.6795961913825074e+01
0.0000000000000000e+00 1.6795961913825074e+01
0.0000000000000000e+00 1.6795961913825074e+01
ITEM: ATOMS id type element x y z vx vy vz fx fy fz
434 1 Ar 0.495936 1.0848 0.888506 -1.22523 -0.254504 0.540333 -15.6453 3.77835 -3.99964
446 1 Ar 1.50194 0.829187 0.889094 -1.11817 -0.335548 0.462436 9.60199 -2.41788 2.7909
3966 1 Ar 0.471865 0.0132057 0.230558 -0.402856 -0.201804 0.871332 29.9845 -6.24766 -5.10798
761 1 Ar 2.35864 16.3554 0.236781 0.830351 -1.09852 0.151549 29.073 27.0035 9.01351
91 1 Ar 2.1985 0.704735 0.0641914 0.00681885 0.843093 0.0863688 2.98488 -1.65927 -3.76203
487 1 Ar 2.63086 1.01235 1.24195 -0.568789 0.0734349 -0.715455 -15.7105 5.41062 -18.0252
12 1 Ar 2.35141 16.7245 1.34035 0.44675 -1.01064 0.531462 -1.66133 2.37029 -14.5923
16 1 Ar 4.37857 0.117918 0.216752 0.566938 -1.80905 1.93345 -13.9031 -14.1324 -15.3578
93 1 Ar 3.46855 16.6617 1.07952 0.331952 -0.125112 0.107685 0.201384 1.6328 2.0775
1170 1 Ar 3.73562 0.892536 0.78615 1.7007 -0.523456 -0.5003 -3.07398 -8.13004 24.7578
457 1 Ar 4.61293 1.10046 0.261493 0.937126 -1.11391 -1.11967 0.905453 26.7909 -21.7759
14 1 Ar 4.988 16.5445 0.943029 0.153653 -0.814062 -0.00198779 27.7714 25.058 25.187
460 1 Ar 5.5231 0.609938 0.253908 -0.120766 0.266761 -0.898412 14.9912 1.01485 27.9782
375 1 Ar 4.86113 1.21492 1.24983 0.805711 -0.2979 0.347952 -7.53592 10.8744 5.12808
64 1 Ar 7.41187 0.34547 0.954019 0.077931 0.914328 1.0274 29.919 5.6156 -31.7248
456 1 Ar 6.43536 1.22614 16.771 -0.72587 -1.00936 0.112522 13.2798 2.36804 12.2376
780 1 Ar 6.45179 0.537231 0.788962 -1.12686 0.614599 -0.171928 -17.6591 3.01149 -2.26423
3619 1 Ar 7.09833 16.5361 0.102703 0.512092 0.243969 0.184205 -2.73957 1.12408 1.49224
57 1 Ar 7.83717 1.67052 0.186628 1.74584 -1.39347 -0.517606 -3.66294 4.76485 -16.2114
24 1 Ar 9.28754 1.39021 0.73417 0.932998 1.05392 0.59779 3.75253 1.81652 2.02153
384 1 Ar 8.47705 0.739753 0.852073 2.21829 0.0574248 -0.249177 0.594653 -10.3652 -1.55673
63 1 Ar 9.48755 0.521742 1.39852 -0.407491 -0.681558 -0.659496 -2.62347 28.7104 11.28
505 1 Ar 10.8013 0.895225 0.570486 1.24937 -0.100943 0.014596 3.63059 -0.745788 -1.42405
3627 1 Ar 9.8871 0.669591 16.7064 -1.26353 -0.959576 -0.129446 -30.7623 -8.97786 17.04
3625 1 Ar 11.8478 0.628981 1.18926 0.433683 0.107234 -0.0492835 3.75989 8.46524 -1.80297
3991 1 Ar 11.8843 0.809176 16.6791 0.948544 1.31726 -0.335641 2.06594 7.78566 27.6239
473 1 Ar 13.8229 1.16679 0.322023 -1.16989 -0.512906 -0.622058 -3.78226 -8.19325 2.31109
34 1 Ar 13.4926 0.0270931 0.678909 0.817129 -0.620341 0.872463 -21.2676 14.0678 6.83226
469 1 Ar 12.7624 0.933392 0.687841 -0.416364 1.00687 -0.363702 0.837786 -6.70777 -19.5718
79 1 Ar 15.0357 0.846939 0.403193 -0.766436 1.58753 0.587825 -0.276374 4.38463 -0.940802
35 1 Ar 14.9027 1.03786 1.5104 -1.39683 -0.143387 0.249527 -26.5063 -15.7819 -33.1986
800 1 Ar 13.5023 1.00845 1.45385 1.09199 1.69285 -0.904156 11.3404 0.780299 -1.38026
437 1 Ar 16.137 1.5583 0.862283 -0.476366 0.448813 0.0833729 2.33055 -15.9153 7.94692
438 1 Ar 16.4186 0.499418 0.272901 -0.95395 -0.336149 -0.257908 -26.0586 13.4474 -1.70675
764 1 Ar 15.7671 0.309033 1.0488 0.31893 0.807855 -1.3295 -4.09436 7.15065 17.3231
442 1 Ar 1.52308 2.73824 0.886119 -0.640088 -0.551551 -0.345812 -12.0382 -19.8878 -2.22056
481 1 Ar 0.797705 2.08778 0.280369 0.190505 -0.21098 -0.197992 7.13559 4.04674 -0.454808
402 1 Ar 16.6087 2.46336 0.589166 0.734214 -0.80685 1.21614 -7.58986 2.98424 -3.47951
84 1 Ar 0.416211 3.29443 0.159458 0.474318 0.303209 0.02972 0.147966 0.697779 -5.81383
523 1 Ar 16.7655 3.403 1.11865 -0.218458 0.14234 -1.12803 -2.58919 -3.63131 0.852828
46 1 Ar 1.98841 2.19939 0.0455081 0.890655 -2.18 1.3829 -9.58941 -15.6626 1.44067
482 1 Ar 2.37956 2.21664 1.29776 0.186467 -0.788709 -0.271176 -0.4253 -11.4584 -1.16678
489 1 Ar 3.36832 1.95413 0.809806 0.890309 0.389793 -0.0954678 -8.86642 -10.6363 -17.0483
410 1 Ar 3.5504 1.3542 16.6957 -0.155851 -0.371568 0.580734 3.69868 1.95159 -14.7218
413 1 Ar 4.53814 2.17429 0.617827 -1.56059 -0.0664684 -0.96033 -12.6221 -12.7551 2.22106
529 1 Ar 5.34191 2.82117 0.716833 0.356151 0.291876 0.986978 6.19318 -1.40293 -10.7709
454 1 Ar 5.97211 1.96552 1.91253 -0.0712166 1.36913 -0.222477 -21.3065 -8.79389 7.75811
500 1 Ar 5.69589 1.67712 0.71448 0.803786 -0.086718 -0.169863 -7.56273 -12.2551 -8.0901
3657 1 Ar 6.39858 3.31965 0.403131 -0.878785 -0.266182 0.694501 -8.21606 0.515406 -8.18705
3659 1 Ar 6.75415 2.32684 16.772 -0.0537118 0.269256 0.724768 11.253 -3.41387 41.0828
493 1 Ar 7.286 2.5048 0.947045 -0.0352886 -1.05372 0.014411 25.3964 2.8656 -0.0192046
894 1 Ar 6.28795 2.42646 1.0753 -0.320059 -0.0749034 -0.912097 3.97603 16.124 -10.4605
379 1 Ar 8.48287 2.48383 0.728259 -0.198727 -0.111048 -1.30249 5.29655 -13.7489 2.22968
54 1 Ar 8.41586 2.45311 1.8738 -2.01702 -0.842879 -0.216072 1.95805 3.15743 -0.0372723
58 1 Ar 9.06866 1.50525 1.90929 -0.525085 0.220051 1.03362 -1.19151 12.6617 -16.3715
25 1 Ar 10.1392 1.87657 0.279203 0.428749 -0.586712 0.419448 -9.63268 2.41547 -0.959665
68 1 Ar 9.54287 2.83322 0.347038 0.644851 -0.325714 -0.247445 3.37707 -9.82855 -19.9098
467 1 Ar 10.4586 2.75205 1.04504 0.694836 -0.134344 0.176329 -15.0212 0.274976 -3.39896
862 1 Ar 9.4705 2.2867 1.3311 0.0582178 1.14849 -0.205707 4.56505 -7.97087 -2.85249
108 1 Ar 10.5295 3.26402 2.10253 0.504205 -0.0942151 -0.602769 -5.19506 -26.3242 4.08258
466 1 Ar 11.3961 2.59777 1.53242 0.712436 0.48232 -0.492715 -6.23059 -4.54055 -3.29594
912 1 Ar 11.7732 1.60543 0.793571 0.523762 0.313034 -1.60794 -7.67289 3.41144 -8.98625
32 1 Ar 11.6639 2.59137 0.368654 -0.891553 -0.462391 -0.265347 1.2423 5.42351 -1.73202
31 1 Ar 12.3762 1.89706 16.6595 0.402272 0.548357 -0.061114 -2.58764 -4.86542 6.44522
29 1 Ar 12.3943 2.43332 1.27388 0.813971 -0.175785 -1.34641 1.31299 -4.47272 -17.4024
513 1 Ar 13.6887 3.04878 1.5835 -0.224555 0.103069 0.68027 -16.9149 -13.9327 8.48952
71 1 Ar 13.5275 2.07825 0.93242 0.937947 0.147991 -0.0134956 -12.6763 -1.56259 6.11843
3714 1 Ar 13.1029 3.00993 0.620617 -0.746524 0.136408 1.18366 5.38102 -22.5721 22.4257
36 1 Ar 14.5269 1.8188 0.949957 1.068 0.904541 -0.0873676 -4.47769 0.878044 -6.67705
441 1 Ar 16.7075 1.70364 1.85338 -0.516734 -1.21521 -0.558974 -15.8786 -13.6386 8.26355
3674 1 Ar 15.3914 2.23902 0.541256 0.710652 0.113032 -1.27899 -3.83618 9.68993 -7.342
525 1 Ar 1.08164 3.62489 1.23069 -0.0457489 0.721964 1.3653 -4.83106 15.9311 -19.3976
124 1 Ar 0.351298 4.58779 1.01069 -1.35015 1.31015 1.4745 16.7012 5.60156 -0.928067
524 1 Ar 0.892702 4.56418 1.96859 -0.209559 0.246414 0.249103 35.1946 -37.504 -8.67902
486 1 Ar 2.09424 3.5722 0.839423 0.0776569 1.08144 -0.24301 -1.79239 0.731922 22.1829
565 1 Ar 2.24229 4.0226 16.7517 2.06673 0.435707 -0.150136 9.21162 25.2765 -22.4753
48 1 Ar 2.55208 3.04098 0.0253817 1.52376 0.345069 -1.08263 -1.74437 -1.62877 -9.49132
893 1 Ar 3.00435 4.06126 0.759062 -1.44159 0.206673 -0.231618 -17.9759 -2.49342 18.6255
92 1 Ar 3.35533 3.03426 0.623164 0.0885606 -0.201179 -0.66417 15.5333 1.95289 9.37969
3689 1 Ar 4.49118 3.14782 0.168121 -1.09635 0.117283 -0.289598 -4.23722 -0.1889 6.5195
133 1 Ar 4.58772 3.23706 1.48206 -0.471867 -0.460252 -0.0272768 13.8297 3.40919 0.604921
129 1 Ar 4.01508 3.95321 0.715861 0.756615 0.049083 -0.9513 10.1627 -8.3332 -9.29311
3692 1 Ar 5.82638 3.32397 1.4677 0.114291 -1.12055 -0.715468 2.72757 11.2186 8.3437
3731 1 Ar 5.0651 3.8982 0.752443 0.296028 0.844936 0.484948 2.37384 2.82317 1.97553
90 1 Ar 6.75595 4.73232 1.5862 0.373394 -0.337485 -0.563703 2.85872 19.9276 -6.3152
136 1 Ar 6.94686 3.52765 1.26675 0.00767655 0.178527 0.288748 -6.41928 4.8394 -1.95827
534 1 Ar 6.99244 4.35975 0.628797 -1.57861 0.322597 -1.77302 -2.37541 -1.23697 -15.2539
61 1 Ar 8.38204 3.49453 0.918899 -1.47779 0.0477201 0.102413 -5.0277 10.3374 7.5439
494 1 Ar 8.74707 4.64928 1.2868 1.09237 -0.465668 -1.35126 2.67216 -5.77311 9.71893
898 1 Ar 7.7594 4.33274 1.27836 -0.678733 0.820345 -0.545074 2.2544 -21.5498 23.8554
98 1 Ar 7.49787 3.30486 0.278249 0.434729 0.538918 0.792172 -1.99664 -11.6881 24.5656
102 1 Ar 10.0675 4.90983 1.11973 1.64642 0.13198 1.60217 3.62396 -2.99041 -11.1601
3704 1 Ar 10.1563 3.72954 0.636277 0.0657615 1.94912 -0.628394 12.3596 -8.89444 -1.66227
112 1 Ar 11.2323 3.41852 0.8774 -1.68629 -0.516196 0.471944 -6.41371 13.3797 7.61983
76 1 Ar 11.3329 3.71974 16.6963 -0.399936 0.356058 -0.729993 8.93906 -14.1775 -18.9074
75 1 Ar 12.2461 3.66562 0.963841 0.116029 0.443655 0.0651959 7.46739 1.23932 -11.8064
3747 1 Ar 12.3065 4.18168 16.5786 0.458875 -0.324557 0.549604 -27.0626 33.5747 -9.89475
73 1 Ar 13.3154 3.96166 1.2551 -1.55985 1.81599 0.20249 -29.0535 -9.04865 -12.4581
546 1 Ar 12.2788 4.44479 1.76227 0.651564 -0.17579 -2.07444 5.04457 -7.74258 0.979388
146 1 Ar 13.1751 3.8665 0.135105 1.04288 -0.179742 0.264722 36.5674 26.3695 -1.5295
553 1 Ar 14.6499 3.14589 1.39574 0.447805 -0.696783 -2.05193 13.4686 -2.15787 -3.01391
114 1 Ar 14.3852 3.95029 2.11153 -0.261302 0.82443 -1.81556 1.18717 -10.1153 13.5798
109 1 Ar 14.2809 2.6779 0.256925 -0.557406 0.156379 -0.033742 -1.4249 -4.20729 0.592074
153 1 Ar 14.2118 3.72269 0.570723 1.51558 -0.553665 -0.454611 -15.0423 1.89756 6.82985
120 1 Ar 16.194 4.30554 0.788825 -0.0633546 0.570467 -0.307742 -8.44476 -8.16145 3.08639
3683 1 Ar 15.6412 3.05074 1.20923 0.445597 -0.181424 0.0293201 42.0572 -21.8399 14.2042
81 1 Ar 15.1434 4.42354 0.734418 -0.554026 -0.826195 0.538965 -8.0277 2.84155 -0.115622
163 1 Ar 2.00008 4.65705 0.936965 -0.365982 1.5878 -0.0762689 -8.7359 4.08715 -11.808
200 1 Ar 0.0395054 5.82052 0.594613 -1.78399 1.10327 -0.224774 -18.5023 -9.58392 7.07606
3725 1 Ar 0.911073 5.29121 0.279238 0.498604 -1.82852 0.522281 0.392758 17.8951 -2.39881
522 1 Ar 2.42279 5.10141 16.7899 0.490196 -0.608716 1.17443 -2.16799 1.4898 -0.489559
157 1 Ar 2.9665 5.29683 1.11541 -0.17682 -1.01574 0.163374 15.7006 -8.90693 -25.7773
173 1 Ar 1.91092 5.73665 1.0153 -0.618084 0.243006 -0.157242 7.79149 -4.02491 15.1424
3726 1 Ar 0.883116 6.22661 16.1061 0.656817 0.32479 0.0594289 29.3901 11.7721 12.2932
3775 1 Ar 4.75783 4.91284 0.113176 -0.32571 -0.576726 -0.0939051 -1.39972 18.4673 12.8746
132 1 Ar 3.4026 4.56848 16.7937 -0.696867 -1.22721 -0.20513 7.93974 37.9938 -7.69018
3772 1 Ar 3.51515 6.36556 1.19866 -0.0163235 0.496894 -0.255481 -12.4593 -6.55815 7.65097
3732 1 Ar 4.09943 4.95239 0.97941 -0.136142 0.558515 -1.59977 -9.97344 -0.502953 -6.70335
130 1 Ar 5.3969 5.27876 1.08137 -0.781377 1.72497 -1.9538 -2.69854 0.525385 -6.49452
174 1 Ar 4.43235 6.05713 0.703131 -1.37982 0.365308 -0.246109 23.1568 -10.3025 5.77876
3375 1 Ar 5.70359 6.12539 0.487247 -1.58266 0.167815 -1.12165 7.80989 -5.70167 4.04437
573 1 Ar 6.64147 5.4874 0.615408 0.440202 -0.542414 1.76149 -2.90599 -11.4347 3.10013
974 1 Ar 7.5128 5.69149 1.38084 -1.01517 -0.0623941 -0.643821 -5.86483 -4.89631 -3.70707
977 1 Ar 8.55743 5.76293 1.76801 -0.16553 -0.872602 -0.124437 -6.22424 1.95483 4.12436
539 1 Ar 9.12544 5.25518 0.560986 0.798011 -0.507126 -0.655869 -1.27235 2.10772 -11.4737
544 1 Ar 9.92728 5.9131 0.671946 0.25037 -0.818106 0.126213 -2.80901 -18.232 1.18059
138 1 Ar 10.8199 4.49245 0.32328 1.1831 0.410827 -0.36255 -26.6563 -6.63411 -9.903
145 1 Ar 12.075 5.31885 0.150947 -1.25775 1.07628 -1.30063 -15.8899 -16.0507 -2.99346
506 1 Ar 11.6072 4.54553 0.948999 0.766178 -0.2404 1.85991 12.5373 0.323551 8.63206
148 1 Ar 11.0599 5.41806 0.615953 -0.516277 0.480414 -0.559357 2.81437 22.3702 12.3357
189 1 Ar 12.8456 4.88784 0.770397 1.50957 1.20482 0.164687 -11.1027 -8.71199 17.63
950 1 Ar 12.3658 5.95817 0.905428 0.439042 0.47081 -0.127635 6.3931 13.3289 -9.61657
151 1 Ar 14.0845 4.56495 1.36183 -1.47098 -0.574034 0.533357 14.4185 19.3005 -20.8684
559 1 Ar 14.5768 5.73084 0.80115 -0.493114 -0.427504 -0.712472 2.53246 -5.82528 -0.509673
117 1 Ar 14.9732 4.91231 1.68569 1.67239 0.702897 0.717272 13.0198 -0.817485 10.6935
560 1 Ar 15.0785 5.93117 1.71665 -0.780641 0.0287553 0.233546 10.6211 -16.9245 -23.8601
155 1 Ar 13.9636 4.6919 0.259541 -0.0404521 -0.631922 1.24976 26.5115 1.35185 10.6765
159 1 Ar 14.9781 5.26122 16.7058 -0.587112 0.402682 0.129356 4.46175 -4.72623 -0.260057
561 1 Ar 16.1953 5.11852 0.055209 -0.712373 0.434902 -0.533474 0.53363 -24.8407 4.58097
121 1 Ar 15.8297 5.35065 0.987074 -0.749209 1.1697 1.09001 -8.09823 2.44735 14.6468
602 1 Ar 1.04071 7.23235 16.5431 -0.755281 0.939877 0.74034 -3.78827 -15.639 0.564878
609 1 Ar 1.41183 6.6404 1.36138 -1.66838 -0.192089 -0.486696 2.06959 7.69085 2.30916
922 1 Ar 0.894734 7.7276 1.29418 0.430481 0.182775 1.2295 15.8976 -2.05783 -7.92545
564 1 Ar 0.782604 6.50385 0.513997 -1.92231 -0.750443 -0.275405 14.532 6.50377 -10.1283
126 1 Ar 1.81172 6.04771 0.0536877 -1.001 -0.165693 -0.292518 -4.38092 8.63511 -18.4295
167 1 Ar 1.18502 8.05684 0.331934 0.834798 -0.167208 2.04926 4.80241 12.2566 -4.7578
1010 1 Ar 1.85304 7.20472 0.600632 -0.69729 0.32722 0.128486 -5.10334 6.49359 -0.0174866
566 1 Ar 2.94087 5.99799 0.343236 -1.69791 -0.265896 -2.05416 -11.7101 5.35578 -5.53887
620 1 Ar 3.72803 6.7108 0.165602 -0.923056 -1.99008 -0.231113 3.02912 5.08714 -2.20174
3016 1 Ar 3.98243 7.74282 0.691784 -0.599059 -0.853862 -0.77675 11.1037 -14.9652 -22.5795
171 1 Ar 4.00997 7.64216 16.4256 0.879715 -1.10067 0.830394 9.24311 7.54135 -1.39408
3817 1 Ar 5.44018 6.6431 1.40385 0.11556 0.925874 -0.416754 -6.45654 -24.6636 -9.27398
3774 1 Ar 4.97729 6.85362 0.293266 0.104785 -0.757241 -0.39849 -2.51147 14.1521 -8.23684
653 1 Ar 4.40368 6.88858 1.26799 0.175158 0.466802 0.180435 13.9375 18.4193 10.5085
3779 1 Ar 5.73142 7.68917 0.523242 0.843762 0.859287 0.0411382 -4.6612 6.75661 19.6513
3780 1 Ar 6.70165 6.52858 0.552261 -0.921575 0.636118 2.44306 7.72053 14.4926 0.00147119
141 1 Ar 7.02891 7.67566 0.217618 -1.8968 -0.384518 0.094118 -24.8041 1.06472 0.45705
3740 1 Ar 7.38918 5.93514 16.5267 0.0277611 -0.805109 -0.91322 10.7521 4.39958 5.13702
585 1 Ar 9.15426 6.82514 1.35902 0.191482 0.236982 0.0763844 -1.7911 -15.662 38.2555
219 1 Ar 8.41687 6.03746 0.793826 -1.31261 0.478904 -0.967366 -4.89225 10.896 -12.3763
3785 1 Ar 8.83032 7.69338 0.959696 -1.31871 -1.68576 0.456398 0.650729 14.3106 -2.31075
545 1 Ar 10.3137 5.8246 1.7629 -1.13334 -0.374312 0.714163 8.43292 21.6905 -7.01647
3836 1 Ar 10.4509 6.73072 0.852263 1.09696 0.13861 0.522131 9.15869 4.48082 6.65902
183 1 Ar 9.20744 6.69388 0.385073 -0.742807 0.391317 -1.36818 10.3027 -26.6935 7.60779
192 1 Ar 11.2538 6.17625 1.33555 0.465325 1.25927 -0.282517 10.0052 14.6215 0.0681057
229 1 Ar 11.9082 7.59495 0.333607 0.779432 -1.93428 0.151076 3.93516 20.2319 -8.12948
3757 1 Ar 12.6462 8.26575 16.5546 -0.739822 0.561338 0.772611 -11.5024 -26.4248 -20.8119
187 1 Ar 11.6474 6.56164 0.261517 0.88506 1.20741 -1.29982 -4.13475 -10.3922 1.97944
190 1 Ar 13.5512 5.75013 0.558227 1.85112 -0.819637 0.187877 -8.38824 -5.58931 -2.07731
595 1 Ar 12.822 7.11247 0.223196 0.388094 1.61717 -0.548845 9.04942 -6.01228 -4.44984
193 1 Ar 13.8141 7.60721 0.609146 -1.31329 -0.563995 -1.11852 6.85452 28.7955 -28.5629
554 1 Ar 14.8189 6.33864 16.7234 0.243977 -1.65111 -0.889108 -19.3175 -9.7174 -13.9257
960 1 Ar 14.5768 6.91272 0.792583 0.858279 0.822516 -0.279074 3.60351 -5.99602 2.12413
149 1 Ar 13.863 6.70478 16.7653 -0.616988 -1.06296 0.532692 -41.5891 -21.3294 5.04943
518 1 Ar 15.4411 6.36077 0.66782 -0.594661 0.618188 0.0646462 43.0446 -7.58442 31.5956
158 1 Ar 16.72 7.85248 0.829705 -1.2291 -0.674213 -0.294812 -7.03147 0.495585 3.57952
3790 1 Ar 15.5227 7.44029 0.638509 1.00468 0.429699 -0.0521272 -16.7123 -33.8579 31.7733
597 1 Ar 15.6112 7.01449 1.60795 -0.74549 0.397262 0.579415 -5.67053 8.00573 -0.772445
201 1 Ar 0.47935 8.88869 0.676866 0.299336 0.409365 0.437801 -6.05693 -20.7505 12.7885
568 1 Ar 0.0672172 7.83207 1.86285 -0.422681 0.129307 -0.480325 -12.1982 6.39434 17.0838
207 1 Ar 1.49506 8.6999 1.09487 2.11014 0.278438 -0.355856 7.47072 4.9567 9.8155
209 1 Ar 2.28164 8.39713 -0.00363841 0.820667 -0.591312 -1.96594 -3.86564 -6.47703 5.33714
170 1 Ar 2.57581 6.91829 16.6959 -0.866268 1.26613 0.0270878 3.11777 1.84989 -6.84601
243 1 Ar 2.88198 7.68072 0.640963 0.418137 -1.45273 -0.189163 -5.27777 -8.56427 8.19889
216 1 Ar 4.01174 8.72834 16.0625 -0.373972 0.708097 -0.231643 7.33269 -2.59967 3.03227
651 1 Ar 5.27949 7.94582 16.3279 0.571364 -0.317688 0.520134 -7.95545 -22.6644 -0.236986
297 1 Ar 5.54665 8.7388 0.831025 0.629663 1.03295 0.0298063 -1.92947 0.188326 -0.0600009
3451 1 Ar 4.34644 8.7265 0.65235 -0.248935 -0.637996 -0.0173939 11.7752 14.4616 -0.849874
3819 1 Ar 6.21577 8.35004 16.5971 -0.484969 -1.98401 -0.410346 6.0438 0.264102 5.4427
218 1 Ar 6.56195 8.3553 0.929866 -0.304135 -0.591716 0.221275 -5.39837 -0.200673 -14.8184
224 1 Ar 8.41144 8.37841 0.218427 -0.993291 0.795132 0.45577 -3.30871 4.36105 5.27858
184 1 Ar 9.07341 8.79961 0.959337 0.250297 0.774448 -0.548724 -0.262034 2.54587 -5.85765
223 1 Ar 7.21813 9.30851 0.321665 -0.104612 0.563419 0.0139025 1.5867 -15.0795 0.699688
586 1 Ar 10.0205 7.68376 1.13916 -0.471233 1.53707 0.480153 -3.61827 22.849 -12.892
625 1 Ar 10.133 8.96654 0.961777 0.874458 0.251079 -1.5228 9.62068 2.66219 7.87796
3787 1 Ar 9.81322 8.26451 0.212323 -0.891141 -0.137455 0.626733 10.8632 13.2011 3.12823
3796 1 Ar 11.2774 9.17768 1.35028 1.86886 -0.877571 0.395792 18.263 22.1756 -3.17522
669 1 Ar 11.0322 8.43669 0.67356 -0.400353 1.58105 0.352394 1.42548 -0.794932 -7.44737
186 1 Ar 10.9046 7.46457 0.333313 0.504278 0.038276 -0.239309 -8.23984 5.5157 -7.32877
195 1 Ar 12.1332 8.87867 0.743889 -0.55731 0.7212 -0.683461 -26.8875 7.0206 -17.1221
197 1 Ar 13.0208 9.01666 0.263707 -0.503917 0.0656852 -0.607823 36.6147 6.83207 10.1474
636 1 Ar 12.8729 9.32493 1.36552 1.14585 0.224397 -1.19077 11.7102 0.917438 2.45772
3831 1 Ar 13.8648 9.58613 16.7689 -0.623833 0.427878 -1.60226 -13.2108 0.444753 -9.98752
3753 1 Ar 13.5756 7.77612 16.2171 -0.438557 1.16294 0.895199 0.769495 -16.6394 9.59773
237 1 Ar 13.9668 8.78759 0.93735 0.00514016 -0.721272 0.132644 5.76124 4.00712 -4.47134
3798 1 Ar 14.5633 7.66663 1.50325 -1.99351 -1.00461 1.23847 10.2825 11.2722 -8.29979
603 1 Ar 15.7384 8.21769 1.32776 -0.0491622 -0.253039 -0.306261 2.39854 -21.7096 -0.177185
3439 1 Ar 14.8735 8.2094 0.602263 0.27168 -0.160824 0.676489 -0.37173 9.16534 15.2015
3808 1 Ar 16.1196 8.92983 0.644411 -0.058008 -0.658974 -0.633267 5.79665 -0.270302 -34.5708
279 1 Ar 0.33794 10.6108 0.262128 -0.442522 0.206198 -0.376721 -4.07 4.26588 1.97646
717 1 Ar 0.43646 9.61723 16.7682 0.355666 -0.664326 -0.121373 -8.23537 2.11068 -9.32458
641 1 Ar 0.727478 9.83415 1.12488 0.969198 0.0831028 0.871866 12.6243 8.74924 -3.72577
608 1 Ar 1.38842 9.32758 0.220392 1.14703 0.927786 -0.502422 7.34703 -6.36728 8.1046
612 1 Ar 2.57884 9.13712 0.682311 0.0765408 0.149496 0.374833 0.451304 7.20362 5.78463
647 1 Ar 2.40296 10.23 0.486489 -0.122919 -0.589077 -1.19618 30.9714 11.2592 -7.64515
649 1 Ar 3.45768 9.9302 0.861515 0.778942 0.937998 0.664327 -2.56883 -0.706329 -2.25158
3816 1 Ar 4.11768 9.66599 16.7453 -0.116729 0.780734 0.231263 3.2332 -3.65864 -1.65081
3856 1 Ar 3.20709 11.0376 0.328383 -1.23557 0.479078 0.108679 9.17963 -9.25893 15.8084
291 1 Ar 3.20761 10.1776 16.4839 0.643159 -0.155846 -0.759591 -0.830591 -3.8723 -4.59561
689 1 Ar 4.14764 10.7993 0.928847 0.0172198 -0.341689 0.0300535 1.51893 -6.87516 -1.97552
217 1 Ar 5.06604 9.68896 0.53852 -1.30079 0.378406 1.40431 1.61519 2.47418 0.810294
655 1 Ar 5.94055 10.6579 16.7098 1.59089 0.0917308 -0.756715 -10.0446 -13.8028 6.50547
253 1 Ar 7.61378 9.79599 1.78133 -0.977416 0.733013 -0.281606 -19.2795 4.27216 -37.4988
3815 1 Ar 5.18179 8.95736 16.2617 -0.747561 0.0890178 -1.56873 -20.6642 19.4106 18.2822
258 1 Ar 6.88371 10.3007 0.525605 -1.4097 0.224692 -0.49404 -3.16362 12.1142 0.627033
665 1 Ar 8.27411 9.50669 0.747167 -0.92462 0.603141 -0.463582 -17.1352 -18.2598 -11.2504
668 1 Ar 8.79029 10.1979 1.25311 0.239453 0.160864 -1.54481 22.489 13.6477 8.14467
222 1 Ar 9.6 9.68113 0.399848 -0.212641 0.586336 -0.180378 -10.7607 -9.50894 -5.14202
626 1 Ar 10.0144 10.7621 1.47056 -0.509829 0.747343 0.0159743 19.7736 2.13831 18.3183
672 1 Ar 10.6977 9.99652 0.810301 -1.10412 -2.15547 0.405678 -12.939 -1.47951 0.247849
996 1 Ar 11.6983 10.3233 0.799638 -0.236654 -0.950723 -0.626934 -5.63952 16.4779 -20.1469
227 1 Ar 11.4002 9.76179 0.00418894 -0.932659 1.15389 -0.363128 42.712 -3.69236 -7.31878
267 1 Ar 10.5846 10.3853 16.5978 1.27899 -0.847349 0.162205 -9.27762 17.3531 -4.66306
194 1 Ar 13.9111 9.83645 1.00082 0.791913 0.904534 -1.00663 -0.728163 4.86455 -13.2822
273 1 Ar 12.536 9.89818 0.292042 -0.12028 0.202829 -0.152731 -16.8866 -1.7747 -3.31825
353 1 Ar 12.9942 10.35 1.12297 1.57971 0.197641 0.495642 -10.5549 11.9271 6.59501
3835 1 Ar 12.9136 10.8307 0.0816598 -0.968129 0.231321 -1.80752 -8.95312 14.806 6.68335
311 1 Ar 14.7859 10.4672 1.51556 0.545361 0.462369 0.654922 -9.6471 5.28359 63.6464
3435 1 Ar 13.9536 10.6854 0.0521669 0.866281 0.33648 -1.52717 -10.8384 -0.595598 1.78901
199 1 Ar 16.4894 9.96737 1.24261 -1.60594 1.19023 0.632917 -6.14783 3.80057 -7.23674
3795 1 Ar 14.9516 10.3606 0.591782 0.0576145 1.97611 0.85596 9.15734 -2.49305 -54.7561
277 1 Ar 16.1318 9.92984 16.7442 -0.773308 -0.71857 1.21391 -2.15276 12.8091 25.7661
720 1 Ar 15.2897 9.42846 1.02274 -1.40595 0.478146 0.058483 -11.7384 -1.36097 -3.52958
212 1 Ar 1.41734 10.4254 0.360189 0.590221 0.702088 -1.03468 -16.6853 0.824774 -3.90602
687 1 Ar 0.717172 11.0865 1.5599 -0.432201 0.224378 -0.535477 9.40157 -37.7526 -2.38815
685 1 Ar 1.24893 11.9278 0.880971 0.97727 -0.423011 -0.767161 5.02902 -2.63748 -2.17737
241 1 Ar 0.379711 11.6774 0.195843 -0.138241 0.0295002 0.0271766 0.303841 -0.352841 6.70544
245 1 Ar 2.22105 11.352 0.380942 -0.211197 1.19364 -0.653021 6.62976 0.174638 13.7435
696 1 Ar 4.32429 11.7521 0.448094 -0.960424 -0.308872 1.25355 -21.7866 -6.59714 2.59806
249 1 Ar 2.96881 11.9916 0.798802 0.0611075 -0.803128 -0.352103 9.8661 -21.6931 5.15338
3893 1 Ar 3.39883 11.509 16.2349 0.486357 1.04097 -0.683344 -11.8136 -20.7505 -19.5264
1089 1 Ar 5.15129 12.2934 0.814557 -1.10168 -0.83206 -0.350107 -15.7026 -5.35703 -1.30017
250 1 Ar 5.98298 11.7275 0.0569276 -1.14027 -0.34947 0.529776 -5.0599 8.81935 8.43477
3895 1 Ar 5.22979 11.2149 0.757129 -1.04878 -0.724363 1.07782 4.88633 -4.84295 -1.416
3860 1 Ar 4.76618 10.6673 16.7495 1.33183 0.591462 -0.106082 -2.63457 -2.79022 -2.56255
294 1 Ar 6.64092 11.3601 0.856212 -1.83853 -0.486614 -0.067697 2.43054 -2.35476 1.54557
257 1 Ar 8.06339 11.7416 1.00639 -0.118083 0.998828 -1.71677 2.48361 5.15843 -1.87687
293 1 Ar 7.68948 11.0354 0.0723771 -0.727414 0.249395 0.457753 2.02136 4.47867 1.92414
3904 1 Ar 7.84289 10.6997 1.25688 -0.117893 1.10164 -0.28338 4.25842 -11.1038 -17.1859
3867 1 Ar 9.1237 11.2793 1.43983 -0.241299 1.30239 0.375327 -23.1317 2.68435 -28.2963
232 1 Ar 9.94996 11.6178 0.786851 0.0924328 -0.555331 0.581185 5.01894 26.085 4.85547
3823 1 Ar 9.69205 10.6852 0.536008 -0.287553 -0.257585 0.957461 -13.7856 -9.56634 -31.4902
300 1 Ar 8.848 11.3718 0.255247 1.1779 0.255706 0.0379988 -0.496388 4.06043 2.97949
309 1 Ar 11.1485 11.4526 0.87696 0.609508 -0.481182 1.15136 -7.19105 3.82338 2.5638
3866 1 Ar 11.4413 12.318 0.112359 0.890743 -1.76886 -0.734923 13.0059 11.7088 -5.95691
270 1 Ar 12.187 11.2759 0.825785 0.554443 0.442631 -0.85285 10.4867 2.81763 1.78651
3949 1 Ar 13.8875 11.8137 0.346867 0.184637 -0.620305 -0.58699 -7.06046 -1.40045 12.2039
351 1 Ar 11.7216 12.376 1.10557 0.215461 0.433175 1.27443 9.99256 1.00739 11.0822
671 1 Ar 13.8865 10.8759 1.05071 1.12727 0.258012 -0.335081 10.3573 30.5537 -29.277
670 1 Ar 14.3246 11.7616 1.56017 0.337635 -0.33701 -1.04389 4.90167 -3.58722 -2.41265
3876 1 Ar 14.9254 11.4865 0.612607 0.535196 -0.117708 -0.260433 1.2608 -19.9016 8.82725
315 1 Ar 15.7374 10.9915 1.23344 0.586434 0.422943 0.190397 0.0609723 -14.8468 -10.947
319 1 Ar 16.7442 11.6855 1.26529 1.45287 -0.10179 -0.0258023 -43.7835 -22.0456 -9.63915
318 1 Ar 16.1544 12.2663 0.532668 0.511941 -0.0397386 0.450821 -15.1418 1.61208 -5.67267
275 1 Ar 16.1826 11.2151 0.24419 1.64072 -0.514952 0.283359 4.58237 10.1136 24.9996
692 1 Ar 1.45621 13.1079 1.27929 0.204912 0.0569624 -0.728385 4.55988 -2.18275 0.23402
321 1 Ar 0.276933 12.5612 0.904542 0.384817 -0.854412 -0.046625 13.3597 14.848 1.3277
288 1 Ar 0.970191 12.5462 0.0120985 -0.119265 0.377158 -0.362217 9.59792 7.77045 14.897
766 1 Ar 2.10152 12.8016 0.242503 -0.202759 0.0185037 -0.240964 -10.7148 1.13152 0.167104
3892 1 Ar 2.55332 12.8143 1.16889 1.10744 0.526194 0.0395402 -3.73702 29.3265 -0.358064
3925 1 Ar 2.25582 13.8559 0.473933 -0.753114 -0.71122 -0.778708 6.87938 -20.1506 8.71324
1090 1 Ar 3.93335 12.468 1.09088 1.66451 -0.0919543 -0.272058 -12.0985 4.58439 13.8935
1456 1 Ar 4.44412 12.9362 0.330081 -0.25354 0.709205 -1.44447 8.98334 5.40426 -3.86021
690 1 Ar 4.11185 13.598 1.36085 -0.222962 -1.43974 0.158191 21.3656 6.71396 21.7519
729 1 Ar 3.41872 12.3715 16.7741 0.462592 0.0198174 1.08915 6.04418 19.0039 -0.181045
3967 1 Ar 3.83812 13.2521 16.3486 -0.785331 -0.588445 -0.531805 20.3205 7.6759 -14.9426
332 1 Ar 5.58649 13.4715 1.24298 -0.0824615 -0.588468 -1.22656 -10.6554 -4.22798 12.0042
3900 1 Ar 6.79979 12.4242 1.0376 -0.992105 -0.661621 -1.16981 16.7386 -6.64737 9.23965
700 1 Ar 6.59293 13.3248 1.87411 1.46303 0.68464 -0.259706 2.83131 -1.08099 -6.45449
1094 1 Ar 5.98577 12.8235 0.588011 -0.293815 -0.544808 -0.877867 -2.99913 -7.43361 -34.8492
295 1 Ar 8.4506 12.556 0.210487 -0.204115 1.17407 -1.32779 9.94344 -23.8978 18.1865
302 1 Ar 7.82063 12.9424 1.18908 0.33163 -0.986306 0.985916 -16.7928 -11.6572 -10.5555
662 1 Ar 8.81363 12.4888 1.42217 0.746195 0.491598 -0.295732 -3.38055 -8.04661 0.814659
707 1 Ar 9.51637 12.7953 0.602509 0.917339 0.16008 -0.187598 20.3853 -9.28953 6.91044
705 1 Ar 10.9713 12.7568 1.83442 -0.163993 0.188854 0.731192 8.68139 0.0849384 28.6345
305 1 Ar 8.72406 13.3707 0.790766 0.655072 0.290606 0.554104 -4.03007 5.42998 -14.1319
749 1 Ar 10.1737 13.3513 1.39806 -0.232246 0.271109 0.348736 -5.06372 7.62724 -17.6668
3512 1 Ar 10.6162 12.4609 0.9591 0.387438 0.484803 -0.850812 0.154077 -10.7025 -31.1375
385 1 Ar 12.3324 13.1836 0.0677635 0.630319 -0.57834 1.67045 -5.25236 -0.343108 10.7274
354 1 Ar 12.9203 12.8921 1.08694 -1.11399 1.2295 1.06761 -3.72656 9.94002 -8.51069
316 1 Ar 11.8818 13.2789 1.73039 -0.116618 -0.237058 0.778272 25.2021 -26.8917 30.7748
3912 1 Ar 13.0969 13.9394 0.273284 -0.0924029 -0.536563 0.0985941 4.40425 0.220265 -0.131926
3959 1 Ar 14.2078 12.7499 0.895769 0.402186 0.20966 0.792036 13.8496 -5.91579 -14.1202
393 1 Ar 13.7023 13.5993 1.20917 0.88123 -0.0060886 0.144997 2.45014 17.1812 -3.12584
39 1 Ar 14.3757 13.7744 0.327702 0.994176 0.527938 0.41708 2.28814 2.25075 10.8239
278 1 Ar 14.8692 12.365 0.124302 -0.846385 -0.0228391 -0.435631 8.96209 25.2703 4.6018
3515 1 Ar 13.5202 12.8437 0.0323062 -0.267902 0.523176 -0.45129 1.54039 12.749 8.32413
317 1 Ar 16.1344 13.3992 1.07664 0.856815 0.0719288 0.618907 25.1712 5.22511 -6.79027
3924 1 Ar 15.3966 13.4608 0.231063 -1.2181 -1.02676 0.116512 -1.96324 1.89655 4.03954
677 1 Ar 0.41014 13.5221 1.83681 0.206703 0.500164 2.30718 -12.112 -7.21815 -4.32871
368 1 Ar 0.718079 13.447 0.610314 0.436889 0.95595 -0.710047 4.78982 16.3973 -5.38828
325 1 Ar 16.7894 15.1252 1.00883 -0.307887 -0.515251 0.401704 -0.513741 1.80829 -6.44863
362 1 Ar 1.06833 14.8585 0.381628 -0.903998 -0.651169 0.185849 0.556876 -21.4597 -8.09233
686 1 Ar 2.84043 13.314 16.4322 1.29769 -0.148617 -0.408709 5.97818 6.31756 44.9085
367 1 Ar 2.83223 13.8641 1.38881 -0.918731 -0.161183 0.440742 -6.89271 3.89393 13.7907
361 1 Ar 1.83586 14.6293 1.17568 -0.425089 0.137108 1.05516 8.19548 -2.33041 2.50702
17 1 Ar 3.16417 14.5203 0.380158 0.704496 -0.736424 0.583203 -4.93805 -5.69107 -17.0697
762 1 Ar 3.41115 13.3712 0.714463 0.661131 -1.31607 0.293395 -17.0003 -16.1048 -40.7091
773 1 Ar 4.16073 14.0921 0.287058 -0.898264 -0.456986 -2.88291 1.8817 -28.6939 -2.55701
3575 1 Ar 5.72937 14.2698 1.87683 -1.20979 0.62032 1.36918 2.30151 17.6858 4.37549
740 1 Ar 5.58315 15.2195 0.894188 0.529067 -0.758745 -0.869291 -24.0773 12.9964 -2.30111
3977 1 Ar 6.05625 14.3262 0.758866 0.379083 1.11778 0.451862 -0.593009 -8.10183 -5.91422
3580 1 Ar 4.87343 14.3203 1.11306 -1.15772 -1.8164 0.549434 26.6122 -26.2182 -15.7822
733 1 Ar 7.02834 14.3885 1.28463 0.495266 0.323849 0.567553 -10.0151 13.2139 3.01177
694 1 Ar 6.71218 13.5013 0.834397 1.24288 -1.07292 1.30527 16.0348 0.0761142 -9.7313
747 1 Ar 9.35982 14.1287 1.19643 -0.607253 -1.71518 -1.41846 0.669144 -1.87028 -0.0750033
337 1 Ar 8.39431 14.7286 1.39549 0.123712 0.849914 -0.353103 8.18921 -33.9721 15.0301
3940 1 Ar 7.85878 14.0106 0.746115 0.589638 0.673388 -0.334254 -1.05072 -2.42524 -5.22536
342 1 Ar 9.64279 15.038 0.646952 1.13522 -0.032961 -0.438952 -1.22707 3.71258 3.38571
788 1 Ar 9.98016 15.7796 1.39792 0.276125 -1.94707 1.1002 -3.87521 -5.8806 11.1421
3951 1 Ar 10.8799 15.2002 1.50327 0.854529 0.54284 -0.154048 -7.66832 -6.69731 -23.8432
345 1 Ar 11.5294 15.4201 2.21273 1.30977 1.61122 -0.164358 30.9975 4.21156 14.5753
350 1 Ar 11.5961 14.5142 0.654591 1.86063 -0.393029 -0.800727 -28.0464 -19.6093 2.74313
790 1 Ar 13.0968 14.646 1.15341 -0.604507 -0.386791 0.998194 6.40115 -10.5831 -10.7906
387 1 Ar 12.3054 13.9287 1.08763 -0.937242 0.710413 -0.7547 15.63 0.283599 -10.2172
355 1 Ar 12.5698 15.0092 1.94385 -0.126609 -1.7244 0.938695 -11.3489 12.6336 6.11623
3633 1 Ar 12.0163 15.3116 1.07445 -0.428054 0.95226 -1.14208 16.8153 1.50424 11.1903
681 1 Ar 14.3518 14.6194 1.11771 -0.727537 -0.536011 -0.524979 24.7811 -40.6066 -10.8912
282 1 Ar 16.6826 14.1367 0.444655 2.97154 0.892085 1.73787 -0.830805 4.40489 1.87699
398 1 Ar 0.0916631 15.306 16.1743 -0.153148 0.033387 -0.212652 2.54331 -4.79741 3.56869
357 1 Ar 15.6606 14.3253 0.808702 -0.61939 0.600372 0.736942 12.0357 -10.6607 11.872
758 1 Ar 16.353 14.5045 1.73143 2.43439 1.03612 -0.0930052 3.56499 -37.8852 -44.2289