ITEM: TIMESTEP
6500
ITEM: NUMBER OF ATOMS
4000
ITEM: BOX BOUNDS pp pp pp
0.0000000000000000e+00 1.6795961913825074e+01
0.0000000000000000e+00 1.6795961913825074e+01
0.0000000000000000e+00 1.6795961913825074e+01
ITEM: ATOMS id type element x y z vx vy vz fx fy fz
434 1 Ar 0.104104 1.36154 0.61497 -0.0916888 -1.47255 -0.489376 -3.98635 -6.11859 3.74099
446 1 Ar 1.40912 0.600685 0.894804 0.954921 -0.3 -0.0728688 7.69764 15.0445 4.42356
3966 1 Ar 0.40226 0.31791 0.597097 0.184617 -0.757886 0.140885 7.58956 -12.0115 -10.43
761 1 Ar 3.01761 0.0928614 0.701058 -0.426565 0.959423 1.55088 16.7353 -24.0779 -7.59522
91 1 Ar 2.44249 0.768362 0.113483 0.398013 0.0896237 2.23196 -1.11688 7.03498 -14.157
487 1 Ar 2.57827 0.908446 1.09739 0.261696 -0.255314 -1.1662 -12.2074 22.2537 8.62651
12 1 Ar 2.14914 16.7277 1.3214 0.143887 0.204301 -0.152977 3.6783 2.96277 3.93371
16 1 Ar 4.09092 16.5132 0.630248 1.61513 -0.297982 0.884732 -12.4435 -6.06191 -25.9325
93 1 Ar 3.66913 16.5528 1.59782 1.47094 -0.159271 -0.0137586 9.87141 12.5248 -14.7189
1170 1 Ar 3.94188 0.630763 1.05263 -0.105431 -0.979973 1.42997 4.77743 21.9655 -11.1458
457 1 Ar 4.70577 0.990532 0.19443 0.709932 -1.83156 2.12245 -14.7001 3.25426 -4.0015
14 1 Ar 5.01624 16.4231 1.01609 1.02353 -0.315166 -2.11248 8.29692 2.71569 -8.1401
460 1 Ar 5.59757 0.473568 0.263167 0.499804 -0.182977 0.197252 9.25377 -11.3061 6.47144
375 1 Ar 5.00894 1.41554 1.16757 1.30058 0.236235 -0.273724 10.3689 -2.52455 3.46508
64 1 Ar 7.58591 0.673164 1.05814 0.657879 0.195628 -0.0921771 24.3987 -16.2563 -19.7849
456 1 Ar 6.58411 1.20802 16.7397 0.51741 -1.43014 1.43975 5.21772 -7.13898 -1.34484
780 1 Ar 6.52374 0.404666 0.798799 -0.13328 -0.476668 0.994141 7.46919 25.0697 8.486
3619 1 Ar 6.88803 16.5273 0.130689 -1.09805 0.793142 0.699139 2.07075 -9.42698 1.77514
57 1 Ar 8.41479 1.37172 0.220314 0.952479 -0.718396 -0.974234 -1.07238 -0.0192883 2.99714
24 1 Ar 9.41982 1.48271 0.805203 0.999471 0.85728 0.574167 -10.9804 -13.2121 19.2034
384 1 Ar 8.728 0.635984 0.990931 -0.492883 -0.171807 0.748054 -3.40568 0.702787 -41.811
63 1 Ar 9.60704 0.713142 1.51502 -0.656988 -0.261427 -0.519453 12.4793 -2.47304 1.99538
505 1 Ar 10.8765 0.890415 0.771887 0.767592 -0.507798 0.57794 18.799 -4.56218 -12.6973
3627 1 Ar 9.59322 0.753669 16.7685 0.212232 0.331161 -0.26924 8.3987 3.17649 20.7842
3625 1 Ar 12.15 0.58338 0.888204 0.593309 -0.0558402 -0.570378 -9.62072 -7.78648 13.5582
3991 1 Ar 12.0847 0.90773 16.7106 -0.336333 0.0458933 -0.309368 9.62979 14.9066 -11.0587
473 1 Ar 14.0045 0.960763 0.46278 -0.467085 -2.30905 0.303258 -37.6095 -39.6177 -12.391
34 1 Ar 13.5391 16.6937 0.688784 -1.55936 -0.437208 -1.42842 -13.3118 21 44.7216
469 1 Ar 12.8688 1.27607 0.637748 -0.764381 -0.955459 0.980721 14.8212 -9.89896 -21.2141
79 1 Ar 15.0446 0.82289 0.402027 1.0155 -0.121452 0.900813 6.08739 3.20232 -5.30975
35 1 Ar 14.6867 1.06809 1.66475 -0.0780018 -0.591187 -0.427977 8.84352 -1.92369 0.661174
800 1 Ar 13.6411 1.17157 1.51701 -0.757518 -0.0595306 -0.261047 -26.784 -31.0344 -10.0376
437 1 Ar 15.7477 1.48288 0.863707 -0.186056 -0.864813 -1.50176 22.2776 -18.7329 13.3475
438 1 Ar 16.1872 0.583547 0.305313 0.392136 -0.728863 -0.288343 -7.81104 7.21167 2.42092
764 1 Ar 15.4236 0.192469 1.17304 0.227532 0.463216 -0.0162293 29.4962 0.494736 4.57707
442 1 Ar 1.46166 2.60395 0.952533 0.627029 -0.416932 -1.18119 -4.65233 -12.758 6.35143
481 1 Ar 0.878433 2.02618 0.324144 -0.569722 -0.353511 0.0476828 1.0659 -11.7914 -9.17622
402 1 Ar 16.6795 2.3504 0.35979 0.107348 0.856307 -0.545583 -4.00261 13.0114 9.79814
84 1 Ar 0.682048 3.0088 16.7901 -0.644198 -0.39977 -0.308294 -6.71499 2.47012 -23.0344
523 1 Ar 0.254504 3.23765 0.854081 0.840087 -1.20528 1.47765 -35.5592 -21.2954 22.0679
46 1 Ar 1.87794 1.70129 0.505642 0.297214 0.0395692 0.400272 11.5683 -2.75664 0.0184976
482 1 Ar 2.36504 2.28999 1.45982 -0.821456 -0.0773672 -0.241199 7.65791 -0.170148 1.83138
489 1 Ar 3.01643 1.84609 0.702293 0.220633 0.543273 -0.51863 3.34158 -3.06965 -5.03185
410 1 Ar 3.51441 0.841347 16.7294 -0.361407 -0.419031 0.0357741 -14.5924 17.8122 20.9188
413 1 Ar 4.23019 1.91505 0.636519 0.0026859 -1.09275 -0.415391 -4.45774 7.30326 -13.3723
529 1 Ar 5.28735 2.46143 0.682832 -1.50124 0.309248 -0.261962 -6.99909 6.05894 3.57332
454 1 Ar 5.68672 2.23108 1.72523 1.91271 -0.12351 -1.44178 10.3326 -10.8398 -1.4419
500 1 Ar 6.00974 1.69 0.682837 0.479509 -0.589476 0.0854139 -12.0018 -3.19268 2.51552
3657 1 Ar 5.91674 3.33729 0.318099 -1.66252 -1.34345 -0.538534 2.36104 -2.04469 2.73716
3659 1 Ar 6.66225 2.28415 0.143387 -0.00434201 0.110344 -0.508363 11.8342 12.3681 -6.98178
493 1 Ar 7.59218 2.29535 0.846507 -0.0322228 -0.527009 -0.753656 0.394573 1.55918 2.35689
894 1 Ar 6.5509 2.64014 1.13311 0.157697 0.413478 0.165747 -7.52997 -25.6111 -0.327279
379 1 Ar 8.72061 2.49774 0.707642 -0.949479 0.587657 0.21432 -12.6398 22.1362 -12.6714
54 1 Ar 8.48188 2.68578 2.14966 0.00443275 0.715889 2.7007 5.78941 -9.73168 -12.926
58 1 Ar 9.11194 1.57103 2.08947 -0.363419 1.31118 -0.179606 49.5747 -6.86567 8.62983
25 1 Ar 10.2499 1.72712 0.261601 -0.46982 0.102072 -1.01794 14.1653 0.948039 -13.7192
68 1 Ar 9.69852 2.87857 0.313356 1.19831 0.323439 -0.030064 -9.06873 8.23195 15.3486
467 1 Ar 10.6356 2.49535 0.932473 0.493242 -2.37372 0.396328 -14.5498 6.07471 -4.12222
862 1 Ar 9.5395 2.41818 1.33664 0.285967 0.5075 2.01459 8.89458 -0.181203 10.8331
108 1 Ar 10.3175 3.06488 1.78961 0.576299 0.681677 -0.361861 34.3763 -28.5802 26.4731
466 1 Ar 11.4866 2.35284 1.4621 -0.205791 -0.849213 -0.11519 13.8892 16.258 10.6235
912 1 Ar 11.8713 1.6639 0.760847 -0.704262 -0.00601767 -0.500228 -14.6148 -14.0746 -11.3755
32 1 Ar 11.5853 2.75727 0.459752 -0.368202 0.972838 -1.06822 12.0809 -1.76855 12.1724
31 1 Ar 12.4824 2.10447 16.7992 0.614375 0.965742 0.350907 -1.52099 1.67694 5.30767
29 1 Ar 12.5014 2.39497 1.11046 -0.310846 -0.690245 -0.777085 5.63031 12.6883 -5.55158
513 1 Ar 13.7496 3.23432 1.57855 -0.138476 0.0155629 -0.261008 -26.3486 -8.1979 11.3238
71 1 Ar 13.4786 2.08714 0.771485 -0.948954 1.40067 -0.318956 8.80132 1.9628 -1.20296
3714 1 Ar 13.2618 3.12898 0.67633 -0.0858862 -0.592308 0.705011 -7.50109 -0.433322 -3.69004
36 1 Ar 14.5117 1.69134 0.835121 0.543553 -0.433956 -0.074993 19.9854 25.2251 -10.2201
441 1 Ar 16.3481 2.0026 1.56339 0.176898 0.829955 -0.261571 1.38239 -0.710587 6.50701
3674 1 Ar 15.2643 1.96046 0.168053 0.950539 -0.501573 0.577557 -18.2633 24.8582 -26.6925
525 1 Ar 0.879939 3.96857 0.737648 0.228641 1.06627 -1.16189 15.3648 42.7816 -7.94294
124 1 Ar 0.0846167 4.8103 1.02292 0.00223622 -2.1185 -0.538178 -36.3759 -20.9164 -2.9626
524 1 Ar 0.864847 4.67187 1.71935 0.260082 1.983 -0.952893 14.7112 2.06031 5.10086
486 1 Ar 2.01392 3.41659 0.768748 -0.0235636 -1.68429 -0.828496 20.6387 1.93134 -14.3715
565 1 Ar 2.43771 3.82874 16.5061 -0.532858 1.31908 -1.13229 4.63042 -7.23492 9.2373
48 1 Ar 2.76417 2.65725 16.7313 0.955911 -1.38137 0.429046 -4.02831 1.7662 -1.35687
893 1 Ar 2.89095 4.39579 1.14333 0.724292 0.771937 0.785973 -5.23778 -8.87418 5.94016
92 1 Ar 3.14664 3.47938 0.536736 -1.00794 -0.75828 -1.00974 -42.9826 -39.1657 -9.17427
3689 1 Ar 4.20173 3.11054 0.265297 -0.413887 -0.605665 -0.474289 -0.272813 -3.22182 -3.43901
133 1 Ar 4.38684 3.25073 1.31966 -1.6694 -0.1261 0.0816347 2.24772 13.5927 -1.65111
129 1 Ar 3.84996 4.06596 0.78769 0.0427741 0.383167 1.2244 53.8239 2.72688 34.4848
3692 1 Ar 5.48734 3.28429 1.48669 -0.599693 -0.554982 -0.717104 1.9087 3.80483 -3.72179
3731 1 Ar 4.8881 4.11333 0.559096 -0.472371 0.0324363 -0.756455 2.91871 -9.16607 -4.13286
90 1 Ar 6.7884 4.72108 1.67309 0.266995 0.499346 -2.03755 0.757037 -13.8029 -47.7613
136 1 Ar 6.698 3.61211 1.24571 0.0518289 0.491202 -0.0952116 12.5132 22.7302 9.00504
534 1 Ar 6.81213 4.32635 0.0945944 -0.292293 -0.517858 0.373472 -14.1457 -6.11539 -1.21253
61 1 Ar 8.42134 3.53967 1.25818 -0.653726 -0.299822 0.161534 5.62064 -7.04875 -13.7281
494 1 Ar 8.6771 4.6079 1.15602 -0.707363 2.27901 -0.215812 -15.0008 -8.84693 -6.06057
898 1 Ar 7.54059 4.2846 0.860144 -0.771365 -1.04817 -0.137632 3.43004 -4.37174 15.0301
98 1 Ar 7.10937 3.35114 0.298868 0.102968 0.362395 -0.390955 0.756905 -17.8599 -1.82178
102 1 Ar 10.1335 4.85476 1.06562 -0.353375 -0.887543 1.14967 2.79583 5.25308 7.12096
3704 1 Ar 10.057 4.08189 0.366304 -1.01954 -0.705876 0.138208 -3.14551 -2.40727 -3.1363
112 1 Ar 10.7834 3.57651 0.896826 -1.08929 0.272797 -0.690922 2.81753 -7.40327 17.0007
76 1 Ar 11.319 3.63509 0.0256539 -0.180406 0.824894 -0.149774 -0.126529 14.6605 -23.532
75 1 Ar 12.1907 3.39393 1.00597 1.17987 0.426975 -0.673719 12.8678 17.9538 -15.4267
3747 1 Ar 12.1223 4.34333 0.0704655 0.930898 -0.181095 0.0278463 3.4134 -0.626382 -1.76852
73 1 Ar 13.0588 4.14434 0.985039 1.09146 -1.03373 -0.216306 -5.07944 5.13205 7.88472
546 1 Ar 12.3037 4.26768 1.80309 -0.874607 2.18744 -0.983515 4.98021 -16.0415 -15.2776
146 1 Ar 13.3885 3.96025 16.7682 -1.52598 0.00591598 -1.09344 -22.7858 -4.9179 -3.76395
553 1 Ar 14.6843 2.99087 1.38528 -0.439072 0.650597 0.868345 -12.4331 1.84559 26.5471
114 1 Ar 14.2871 3.96074 2.12535 -0.979526 -1.32799 -0.96612 32.3682 -9.68511 -1.21421
109 1 Ar 14.2661 2.75785 0.419625 -0.844568 -0.960365 1.25665 11.621 0.4601 1.26396
153 1 Ar 14.1036 3.91071 0.897676 0.353431 -1.92884 -1.02031 12.1604 -6.44094 -15.9116
120 1 Ar 15.971 3.97169 0.821908 1.41181 0.382616 -1.49299 29.574 8.13313 17.3951
3683 1 Ar 15.9162 2.85061 1.01619 -0.286589 -0.68405 -0.0538838 -8.65365 -15.4524 -17.8628
81 1 Ar 15.0216 4.51405 0.788093 0.737155 0.54893 0.640059 -2.78071 3.45857 7.53143
163 1 Ar 1.78118 4.24423 1.28561 -0.0727298 -0.104168 -0.153651 -9.14939 19.213 -6.88046
200 1 Ar 16.5348 5.95406 0.876668 0.898627 0.267865 0.974108 0.887038 -26.5615 17.2891
3725 1 Ar 0.897341 5.10586 0.578521 -1.29759 1.02533 -0.532691 37.2875 7.42083 -20.4576
522 1 Ar 1.86562 4.90454 0.00170778 0.417045 -1.29123 -0.532481 4.8476 6.14538 17.2221
157 1 Ar 2.95729 5.31036 0.647791 -0.25764 -0.0588409 0.090602 -5.2864 8.32623 1.12426
173 1 Ar 1.91724 5.26289 1.15404 0.994519 -1.93866 -0.622119 -15.4837 4.65574 -14.0114
3726 1 Ar 0.831397 6.35784 16.0858 0.17942 -0.20352 0.0939436 32.6554 -13.9396 11.3777
3775 1 Ar 4.59917 4.99163 16.6759 -0.635457 0.428517 -0.128808 12.1799 -11.0428 -10.8761
132 1 Ar 3.28793 4.45038 0.0689468 -0.430236 -0.351747 0.168465 -7.40124 10.4672 -17.3779
3772 1 Ar 3.50449 6.16007 1.10646 -0.493588 -1.03975 0.39277 2.9568 -1.53858 3.00037
3732 1 Ar 4.09871 5.03453 0.775504 -0.6934 1.44728 -0.556505 -4.43071 8.31012 4.74456
130 1 Ar 5.23926 5.064 0.849021 -0.758852 -0.300505 0.112099 7.39502 3.77389 -2.13236
174 1 Ar 4.61893 5.91628 0.743585 0.697236 0.214181 0.0323557 2.30809 12.706 -21.2613
3375 1 Ar 5.82332 6.09383 0.406072 -0.130206 0.126041 0.268902 5.80212 -10.2829 -17.5582
573 1 Ar 6.83328 5.16742 0.684662 0.352335 -0.760065 -1.39137 -1.35576 13.6076 0.781338
974 1 Ar 7.45696 5.70482 1.41266 0.117009 0.911712 -1.52042 21.2108 -1.927 -2.19017
977 1 Ar 8.35341 6.2526 1.91465 -0.339135 0.96443 1.15972 -14.1657 -6.53575 2.16371
539 1 Ar 9.19111 5.42775 0.782367 1.81364 -0.569787 0.716283 2.01118 3.54215 -4.5236
544 1 Ar 10.0918 5.94486 0.890909 -0.310664 0.29482 0.63779 0.382714 3.02076 -14.0146
138 1 Ar 10.9323 4.74921 0.165614 1.77629 -0.464056 -0.670845 -0.708733 -1.0585 9.26505
145 1 Ar 11.7312 5.37184 16.5781 -0.603105 -0.927413 -1.15106 7.91035 6.84314 3.63421
506 1 Ar 11.4626 4.4421 1.10502 0.0264634 -0.581566 -0.20291 -0.345707 0.494219 -0.0468785
148 1 Ar 11.1014 5.61781 1.06029 -0.083302 -0.0216452 0.337269 6.73957 -0.996796 -3.96272
189 1 Ar 12.5842 5.12496 0.689062 0.0394846 0.0252171 0.123565 -6.41496 -7.00786 3.68944
950 1 Ar 12.2591 6.16856 0.656719 -0.38189 2.44825 0.920531 -15.3021 2.37803 18.1327
151 1 Ar 13.9475 4.87848 1.21939 -0.0984441 1.5776 1.72105 -4.51627 -2.81026 16.4005
559 1 Ar 14.679 5.63133 0.986635 0.45989 0.220739 0.227023 5.9002 4.25812 -1.37505
117 1 Ar 14.8487 4.83706 1.87995 -0.463767 -0.431179 -0.561495 -5.08558 1.11846 -6.43855
560 1 Ar 15.1504 5.84682 1.99281 -0.18684 1.0084 0.852719 -26.8512 1.31376 1.27028
155 1 Ar 13.8463 4.8819 0.201789 -1.95202 -0.670351 0.312258 11.6768 -9.93019 -16.9086
159 1 Ar 14.9009 5.26342 0.0224976 -0.0133144 0.211772 -0.840462 -3.32967 -0.587905 -4.00549
561 1 Ar 16.0603 4.95029 0.339917 -1.94851 0.0295334 -0.317306 5.59717 -3.91311 -14.5946
121 1 Ar 15.721 5.31757 1.22693 -0.254728 0.83946 0.489169 -4.31194 0.697131 12.8789
602 1 Ar 1.11561 7.29435 0.139292 0.841333 -0.0448998 0.450284 11.3088 -9.58114 -10.9952
609 1 Ar 1.09361 6.79586 1.35114 0.0635021 -0.293043 0.696969 -1.2867 1.09805 -1.41069
922 1 Ar 0.662957 7.79148 0.90145 -1.57961 0.403025 -0.114685 -5.08073 -10.1008 19.2249
564 1 Ar 0.555224 6.14845 0.255728 -0.26914 0.910907 -0.270454 13.0678 -6.11132 8.22764
126 1 Ar 1.79736 6.10417 0.229039 0.690524 -0.288987 1.04998 -13.2761 -6.0695 2.59876
167 1 Ar 1.42309 8.41891 0.0625936 -0.55356 -0.802205 1.31237 6.15149 -6.53559 4.43266
1010 1 Ar 2.06933 7.8025 0.970442 1.70776 -0.0989297 0.25971 0.0041901 -4.39722 -3.39657
566 1 Ar 2.81567 6.31779 0.178663 -0.14323 -0.696152 -0.135015 6.42963 -7.01252 -4.37816
620 1 Ar 3.84741 6.65248 0.129553 1.19059 0.485611 -1.18397 8.60554 -4.94575 -3.56617
3016 1 Ar 4.08482 7.71666 0.355135 0.776916 -0.0507435 -0.434013 2.14724 -13.1523 4.29247
171 1 Ar 3.83483 7.88198 16.0097 -1.30398 -0.453088 -1.08532 -5.89488 -35.8007 -3.67566
3817 1 Ar 5.52818 6.2542 1.34396 -0.154214 1.23838 0.61246 -10.8706 4.73847 19.8269
3774 1 Ar 4.9911 6.94761 0.233686 0.724554 -0.817153 -1.05201 2.75322 -3.53791 -6.93751
653 1 Ar 4.42216 6.85331 1.12427 0.298414 0.544047 -0.907037 -9.79565 11.3544 11.1744
3779 1 Ar 5.66278 7.72366 0.592371 0.731649 1.08085 -0.248265 -6.75365 -7.09634 6.08352
3780 1 Ar 6.75835 6.58763 0.980386 -0.0589865 -0.158918 0.74739 -1.11589 -3.44398 -1.58053
141 1 Ar 6.76262 7.46209 0.421167 0.34861 -1.96605 -0.305419 -7.56584 8.20735 -13.5548
3740 1 Ar 7.53945 6.05146 0.0774621 -0.423745 0.146456 1.52701 -10.6833 -0.697598 -0.28237
585 1 Ar 9.13449 6.52839 1.30296 0.119486 0.764932 -0.236241 10.3913 2.57204 24.2662
219 1 Ar 8.34292 6.07176 0.724637 -1.52204 0.0789653 1.7887 -3.99988 -5.77634 9.23114
3785 1 Ar 8.75427 7.54713 1.11644 -1.00957 -0.0681637 0.298033 -19.2551 1.85355 -16.7565
545 1 Ar 9.9211 6.11334 1.91425 -0.661725 -0.406638 0.268306 2.77015 22.7859 -10.0223
3836 1 Ar 10.6381 6.8108 1.19324 -0.366022 0.0380095 1.32547 -9.93817 -0.428653 0.54554
183 1 Ar 9.16316 6.57928 0.316249 -0.553713 0.48089 0.165784 1.60335 10.8724 -23.3601
192 1 Ar 11.6432 6.61136 1.50955 -1.56645 -0.0859066 0.710918 7.55204 -11.8273 4.99733
229 1 Ar 11.7349 7.6693 0.307957 0.884676 -0.540517 -0.77383 7.08571 -6.50418 1.89968
3757 1 Ar 12.6364 8.23164 16.3436 0.885706 -0.787122 -0.444831 -1.61378 0.628881 -3.5706
187 1 Ar 11.6268 6.52192 16.6289 0.0499061 1.54129 -0.689844 0.964196 -2.0441 -0.569493
190 1 Ar 13.4149 5.73761 0.557858 -1.61704 0.878885 -0.999234 0.0789436 8.60843 10.3586
595 1 Ar 12.7621 7.22303 0.12448 -1.06949 0.841053 -0.557772 6.97103 15.3011 24.7789
193 1 Ar 13.7803 8.01744 0.691077 0.134262 -0.250156 -0.584009 -0.0250879 -0.118736 -6.74246
554 1 Ar 14.8752 6.43852 16.6237 -0.224907 0.60369 -0.82848 1.79474 -0.802509 -2.8709
960 1 Ar 14.5046 6.83564 0.789743 -0.514839 -0.457873 1.62589 2.29494 -21.0413 13.0181
149 1 Ar 13.7147 6.50199 16.6822 1.11555 -1.48865 0.10844 17.9612 7.599 1.73256
518 1 Ar 15.5681 6.28649 0.727018 0.565622 -0.522236 -0.598096 -12.4387 7.26092 -1.68723
158 1 Ar 16.412 8.10105 0.889458 -1.6108 0.422298 0.273746 8.98324 -18.5946 13.8741
3790 1 Ar 15.5459 7.4403 0.625898 0.715204 -1.37248 0.685373 10.512 -7.63113 1.48464
597 1 Ar 15.3607 7.03247 1.6423 0.100059 0.677328 -1.2527 3.70574 -0.843319 -13.4479
201 1 Ar 0.636697 8.76734 0.632397 0.0625294 -0.402839 0.046801 -16.5692 4.38504 8.98133
568 1 Ar 16.7894 7.92605 1.86008 0.426816 -0.0493273 -0.798821 6.02033 0.509865 5.73671
207 1 Ar 1.85964 8.87301 1.07445 -0.732928 1.69091 0.136816 -3.15924 -4.23192 0.186447
209 1 Ar 2.47054 7.89177 16.7048 -0.550659 0.0780173 -0.209824 7.98425 23.1229 4.60499
170 1 Ar 2.0996 6.99453 16.4561 -0.335375 1.27415 -1.67456 -9.40385 -15.6336 -5.5523
243 1 Ar 3.11742 7.13095 0.771268 1.69163 -0.303756 1.07197 -5.83467 11.3319 -11.4593
216 1 Ar 4.02752 8.84516 15.9878 0.12643 -0.445353 0.339607 1.06889 28.2291 25.1651
651 1 Ar 5.54945 7.74892 16.108 -0.199524 0.2063 -0.93777 -7.26501 -0.524821 -0.0772943
297 1 Ar 5.5137 8.83341 0.805854 -0.834501 -0.811465 1.05691 -5.50226 2.27495 -5.9451
3451 1 Ar 4.4246 8.71846 0.40638 -0.509055 -0.0258627 -1.09522 -0.375137 -2.80587 -33.7878
3819 1 Ar 6.14307 8.38357 16.7712 -2.05104 0.80998 -0.338077 8.69373 12.5606 -3.62235
218 1 Ar 6.6843 8.51878 0.934704 2.20912 0.599591 -0.420579 16.0599 -21.883 -23.293
224 1 Ar 7.79047 8.61922 0.464048 -0.358885 0.585179 0.147688 13.4674 -7.3727 -8.76308
184 1 Ar 8.82682 8.67124 0.78936 -0.110055 -1.1552 1.13496 1.54452 -3.57528 13.6141
223 1 Ar 7.00741 9.11767 0.0335436 -0.0414241 0.269925 -0.855402 -8.81733 4.78566 -11.6853
586 1 Ar 9.8296 7.8074 1.12436 -1.20629 -0.0167739 -0.219575 17.6189 7.59663 -27.7905
625 1 Ar 10.1547 9.09258 1.29546 0.449773 -0.246845 -0.844955 -0.055404 -12.6135 -11.7153
3787 1 Ar 9.80419 8.48241 0.3196 0.746767 1.29796 0.0228006 -0.92028 7.56099 -9.88712
3796 1 Ar 11.2508 9.49013 1.34233 -0.6227 -0.6518 0.0405979 3.54815 -3.93825 -9.01492
669 1 Ar 11.1838 8.67246 0.657097 -0.159562 -0.318894 1.18686 13.0232 -14.5372 32.3026
186 1 Ar 10.6442 7.82088 0.232302 -0.986559 0.160627 1.52582 -7.21772 -12.4918 6.51842
195 1 Ar 12.2219 9.24136 0.436913 -0.927303 -0.0598554 -0.752993 6.32113 -3.64044 9.03583
197 1 Ar 13.3897 9.06468 0.0515322 0.120344 1.32752 -1.55078 -4.11832 -15.2079 1.18216
636 1 Ar 13.2814 9.36983 1.00052 0.450956 2.18057 0.146714 -21.1536 4.67801 24.8672
3831 1 Ar 13.9545 9.90988 16.5207 0.0975688 0.421738 -1.63022 7.42525 -4.90379 -5.8308
3753 1 Ar 13.7457 7.84912 16.3085 -0.211441 -0.472392 -0.589848 -6.26017 20.9287 11.7498
237 1 Ar 14.2657 9.01588 1.14951 -0.176149 -0.091011 -1.20801 4.9091 -4.54831 0.993389
3798 1 Ar 14.5826 7.9832 1.45087 0.0654133 -0.014777 -0.277589 -16.5445 -17.4829 8.2739
603 1 Ar 15.6229 8.10283 1.58768 0.279299 0.732672 -0.627053 -1.27484 -2.22479 -23.6351
3439 1 Ar 15.0238 8.37877 0.620203 -0.423253 -0.204979 0.297446 23.9237 21.0808 5.42546
3808 1 Ar 16.1236 8.98379 0.24771 0.896783 -0.183294 -0.895445 -1.62154 -8.30573 -1.17144
279 1 Ar 0.345306 10.4688 0.167055 -0.824665 -0.297421 -0.530812 -4.01184 2.58539 -3.73635
717 1 Ar 0.336448 9.34201 16.589 -0.721186 1.38301 0.183605 -18.3598 20.0172 -14.8421
641 1 Ar 0.696589 9.50224 1.43188 0.437301 -0.728051 0.379657 -1.51534 17.9459 -11.5156
608 1 Ar 1.07477 9.67036 0.384127 -1.81272 0.403968 1.43208 19.7166 0.899184 10.287
612 1 Ar 2.62214 8.98239 0.294467 -0.679915 -0.195805 -1.74549 -14.5536 10.7466 7.51004
647 1 Ar 2.55341 10.0891 0.461475 0.406669 -1.36836 2.27876 -8.63735 -7.25844 2.90289
649 1 Ar 3.61087 9.52093 0.741695 0.241898 -1.95057 -0.171383 3.92186 4.18908 -12.1025
3816 1 Ar 3.95901 9.79426 16.5135 -0.61169 1.92352 -0.681144 -0.0317997 1.71592 0.723075
3856 1 Ar 3.4099 10.7364 0.006595 -0.276435 -1.68775 -0.637557 -24.0436 2.72518 -12.7099
291 1 Ar 2.89959 9.96955 16.2752 1.47101 2.88168 0.127297 4.44663 -13.8127 -0.633706
689 1 Ar 4.11099 10.5465 0.660373 -1.37525 -1.32914 -1.15457 22.3766 -3.71214 24.4079
217 1 Ar 4.98747 9.9089 0.838356 1.64234 -0.522025 -1.54458 5.64681 -15.4191 -9.03609
655 1 Ar 5.84368 10.4559 0.29618 -0.10522 -0.921932 0.937568 5.05325 37.594 -8.56184
253 1 Ar 7.83161 10.0297 1.7589 -0.0539316 -1.22049 0.870991 -0.938991 11.1169 6.24002
3815 1 Ar 5.16664 8.68531 16.4256 -1.07377 0.494345 -0.0266268 -9.53353 9.79008 0.548093
258 1 Ar 7.03621 10.1791 0.329193 0.701542 -0.597962 -1.01469 4.27989 1.01072 -2.82716
665 1 Ar 8.20714 9.72764 0.631055 0.0563236 -0.824258 -0.958372 -6.2441 -8.26454 4.88465
668 1 Ar 9.02591 10.333 0.997808 0.299756 0.135458 0.0427545 -7.51521 -1.29735 19.916
222 1 Ar 9.58913 9.53213 0.501612 -0.308328 -0.000242598 1.6715 0.417432 8.07228 -5.33013
626 1 Ar 10.0616 10.6386 1.42582 0.748474 -1.18276 0.276158 -10.7095 1.33723 -2.47818
672 1 Ar 10.6195 10.0308 0.705575 0.425577 -0.101144 -1.27571 -11.6231 7.20153 -3.50462
996 1 Ar 11.5575 10.5072 0.867985 0.00856858 0.496848 1.84514 0.307726 7.4378 6.29458
227 1 Ar 11.6116 9.90014 16.7766 0.337391 -0.663735 0.29564 -4.0499 10.9336 -8.25238
267 1 Ar 10.6872 10.1259 16.3025 -1.20191 -0.909962 -1.19048 4.09968 24.2578 -7.91784
194 1 Ar 14.0463 10.0383 0.7769 -0.902208 1.0461 1.29548 9.46686 -5.73031 -12.0787
273 1 Ar 12.578 10.2584 0.660734 0.643384 1.51908 0.651193 8.8373 2.0123 -3.22122
353 1 Ar 13.4662 10.5866 1.42549 0.624046 -0.200375 0.193664 -11.6813 5.0018 13.3371
3835 1 Ar 12.6277 11.1943 16.7919 -1.44436 1.08711 -0.0911207 -0.251706 -9.24724 5.14818
311 1 Ar 14.5767 10.9815 1.74736 -0.192446 -0.0896368 0.852549 13.762 11.1404 -12.8703
3435 1 Ar 13.7616 10.9473 16.5152 1.10273 -0.235581 -0.918393 -0.341583 -4.4848 2.39015
199 1 Ar 16.7409 10.4654 1.19526 0.471401 0.104853 -0.135053 -2.2822 15.2292 -26.8429
3795 1 Ar 14.8004 10.726 0.116351 0.314538 -0.284638 -1.89931 10.2399 -16.2475 -11.6567
277 1 Ar 16.0024 10.0379 0.218879 1.57635 0.327307 -0.913983 27.2322 14.5581 31.9184
720 1 Ar 15.0652 9.70068 0.708912 0.188098 0.261778 -1.44789 2.09721 -1.19994 6.63919
212 1 Ar 1.39619 10.6237 0.54034 0.179114 0.355646 1.21031 1.86909 6.18738 -0.722914
687 1 Ar 0.736713 11.1986 1.42147 -0.814036 1.06198 -0.784665 11.0699 -11.4457 2.33916
685 1 Ar 1.45493 11.901 1.14783 0.71627 0.680732 2.14508 -2.67848 17.2731 15.5617
241 1 Ar 0.394133 11.7006 0.491878 -1.34536 -1.44033 -0.673684 1.16591 -5.69844 10.3312
245 1 Ar 2.39997 11.1593 0.378486 -0.172516 0.339851 -0.96555 -3.35935 21.5898 1.77789
696 1 Ar 4.23821 11.5561 0.23974 1.08222 -1.51878 0.157298 11.2226 -15.7335 10.7098
249 1 Ar 3.36679 11.8302 0.724157 1.16416 -1.12429 0.101747 -23.289 -7.27137 1.74953
3893 1 Ar 3.21882 11.6915 16.447 -0.38918 0.961868 1.79263 -21.1406 -12.7661 -12.4812
1089 1 Ar 4.94468 12.2433 0.743772 -1.54085 -0.466819 -0.724478 -4.03941 -10.2007 1.30445
250 1 Ar 5.50386 11.5306 0.111018 -0.246389 -0.949636 -0.899751 4.2225 2.40339 -10.8505
3895 1 Ar 5.11193 11.0409 0.9126 1.03041 1.73913 1.11957 -3.48526 9.20101 -6.68105
3860 1 Ar 4.86063 10.4105 16.7075 -0.264355 -0.24862 0.713095 -1.52204 7.25449 -15.0985
294 1 Ar 6.45383 11.3715 0.750074 1.18434 1.26201 -0.161751 -1.28846 3.25815 -17.2356
257 1 Ar 7.71925 11.9136 0.765491 -1.70344 -0.977227 -1.41971 7.61297 19.2237 -31.6546
293 1 Ar 7.40517 11.1332 0.212826 -1.10033 0.0303656 -0.113908 -3.53619 -2.36811 -15.5744
3904 1 Ar 7.9972 10.7855 1.00429 -0.385624 -0.262217 1.22109 2.69094 -0.212799 5.48834
3867 1 Ar 8.74715 11.3998 1.58949 -0.336906 0.644917 -0.63089 -7.40677 9.4664 -18.7504
232 1 Ar 9.74515 11.6797 0.969354 -1.11547 -0.43726 0.966872 -7.97165 -19.9608 -10.6166
3823 1 Ar 9.60183 10.7437 0.264318 1.42979 -1.33756 0.181297 24.5124 11.3503 -6.89246
300 1 Ar 8.60298 11.3645 0.30431 -1.60417 0.458723 0.80821 2.59676 10.7837 5.52681
309 1 Ar 10.7847 11.3611 1.12288 -1.1715 0.571634 0.947556 6.61293 5.24294 -8.6169
3866 1 Ar 11.514 12.212 0.0375068 -1.40351 0.00719491 0.207564 -5.39714 -4.24787 1.2454
270 1 Ar 12.1148 11.5399 0.989698 -0.365817 0.314751 0.0612199 2.60984 -10.0962 -4.88072
3949 1 Ar 13.7144 11.9092 0.0940011 1.17191 0.223237 0.404346 3.4989 8.44034 2.68837
351 1 Ar 11.9395 12.5727 0.979248 -1.2684 1.95641 -0.671097 -8.4275 2.69033 -5.74834
671 1 Ar 14.0611 11.0814 0.729809 -1.42599 -0.3706 -1.30047 -0.0426254 21.3683 11.1089
670 1 Ar 14.5687 11.9739 1.45968 0.997784 -0.0643586 0.00270514 3.75671 1.93124 -33.5934
3876 1 Ar 15.2122 11.6546 0.393804 0.400948 -0.0108501 -0.328319 0.297918 9.30752 7.35418
315 1 Ar 15.5971 10.774 1.15885 -2.10815 0.14235 -0.392269 -6.18132 4.59531 -3.65381
319 1 Ar 16.5565 11.5088 1.42088 -0.497724 -1.71963 0.552434 -9.49107 -6.805 -6.22108
318 1 Ar 16.1678 12.1976 0.643455 0.305255 0.315302 -0.0306291 5.46487 -4.06844 -5.17685
275 1 Ar 16.1912 11.089 0.355517 0.502871 -0.0195946 0.599687 4.68242 1.38593 2.39446
692 1 Ar 1.60305 12.996 1.32638 -0.540105 -1.08806 -0.258633 0.158835 -1.07509 -2.58349
321 1 Ar 0.312927 12.5446 1.16409 -1.37834 -1.55483 -1.01616 3.45517 1.66191 2.94638
288 1 Ar 0.994484 12.5997 0.308028 0.813654 0.0393757 2.60799 11.0489 -6.39457 8.99625
766 1 Ar 2.18019 12.4051 0.456131 -0.62241 0.81757 0.774212 -0.875228 0.326136 0.742108
3892 1 Ar 2.77649 12.7223 1.28478 1.73235 -0.561452 -0.416992 -5.50674 11.056 -5.41992
3925 1 Ar 2.01568 13.5716 0.379014 0.0286488 -0.894531 -1.13714 6.6135 12.3147 16.6559
1090 1 Ar 3.95328 12.5709 1.12352 -1.157 -0.0683494 -0.402444 23.9186 18.8201 -12.0087
1456 1 Ar 4.42947 13.1774 0.324612 -1.20476 1.19299 0.789583 -1.88601 8.53698 7.37807
690 1 Ar 3.96443 13.5592 1.67977 0.527018 -1.37778 0.987644 -2.4663 2.01272 -8.27966
729 1 Ar 3.90204 12.3991 16.5561 0.546561 -0.705965 0.260771 3.14544 29.8703 -2.18952
3967 1 Ar 4.05077 13.39 15.9273 0.574013 0.514744 0.343918 -12.7772 -23.706 0.961463
332 1 Ar 5.4145 13.1366 0.994 0.335724 -0.412444 0.389797 17.7763 20.116 -15.2881
3900 1 Ar 6.81452 12.4216 1.0917 0.579933 1.05788 -0.738803 16.4407 1.87621 -1.63461
700 1 Ar 6.85865 13.3156 1.82385 -0.130725 0.0209491 -0.168233 -6.04543 4.21619 20.5332
1094 1 Ar 6.01468 12.4758 0.394544 -0.719666 -0.50765 -0.139033 -8.48844 0.45289 -3.4937
295 1 Ar 8.54052 12.396 0.00105332 -1.3515 1.20478 -0.309529 -3.58862 -2.3866 30.3852
302 1 Ar 7.7261 12.994 1.31361 -0.0389623 0.0323147 -1.16039 -9.79601 5.49604 -30.6462
662 1 Ar 8.55424 12.37 1.15193 0.988306 0.207183 0.596664 19.1933 4.25767 5.5016
707 1 Ar 9.55461 12.6972 0.677425 1.6257 0.749439 -0.607965 8.24609 -20.2137 16.1161
705 1 Ar 11.1422 12.7524 1.88427 -0.280159 -0.640938 -1.06044 7.68634 19.7063 -13.1832
305 1 Ar 8.80123 13.3048 0.592274 -0.822773 0.0986496 0.33158 -40.256 18.4149 -13.3186
749 1 Ar 10.4243 13.4032 1.3873 -0.386137 -0.00625452 0.60261 -3.18744 2.32456 -4.10841
3512 1 Ar 10.7286 12.3775 0.861534 0.864565 -1.3466 0.825105 8.47028 4.2927 2.60057
385 1 Ar 12.1719 13.1012 16.7238 1.08266 0.689764 -0.542891 -2.56041 15.3187 2.51689
354 1 Ar 12.9579 12.9686 1.16625 0.652724 -0.181327 -1.61527 3.88646 -4.5051 -7.31038
316 1 Ar 12.0842 13.3352 1.66414 0.38321 -0.273431 -1.30905 -22.038 -1.27898 7.66551
3912 1 Ar 13.309 13.9781 0.361725 -0.415609 1.74214 0.484682 2.27077 8.10265 0.880436
3959 1 Ar 14.3933 12.8895 0.904591 0.904926 0.286147 -1.31869 6.31302 -25.3627 -6.34501
393 1 Ar 13.8173 13.632 1.35191 -1.41366 0.340338 -0.219649 -12.6324 18.1774 -2.36173
39 1 Ar 14.3901 13.836 0.540308 -0.197645 0.22956 0.18478 8.28941 19.1502 -7.82578
278 1 Ar 14.6788 12.5908 16.6271 -0.455556 -1.07835 0.171194 -3.39474 -9.78715 9.27235
3515 1 Ar 13.4771 12.9502 0.200205 0.000957382 1.14853 1.11766 6.34058 1.9027 -3.24946
317 1 Ar 16.589 13.5277 0.965737 -0.314519 -0.193077 -1.33543 -1.87609 -20.4898 3.11906
3924 1 Ar 15.2901 13.3087 0.371834 0.56142 0.548219 -0.075028 11.0598 0.064466 1.43769
677 1 Ar 0.658089 13.1844 2.30731 0.20715 -1.19903 0.353254 -21.5463 -4.77107 -45.745
368 1 Ar 0.88593 13.6506 0.531193 0.824347 -0.584889 -0.636016 2.38646 -1.29898 -4.00382
325 1 Ar 0.123494 15.5654 0.944335 -0.417289 -0.248309 -0.591202 -10.276 -16.4004 -13.6527
362 1 Ar 0.90001 14.8086 0.277158 0.183867 -0.346869 -1.55309 -16.2629 -6.82033 -4.54651
686 1 Ar 2.96531 13.0586 16.6371 -0.940562 -0.385173 -0.26575 -3.84943 -0.546711 -6.273
367 1 Ar 2.69368 13.9316 1.26276 -0.372735 -0.494132 -0.834098 -7.5511 -6.51383 27.3968
361 1 Ar 1.84945 14.5136 0.970528 -0.286965 -0.706174 0.894489 -6.19663 -1.73633 28.1444
17 1 Ar 2.86365 14.4356 0.399778 -0.596113 1.07025 -0.481866 2.09296 -5.01496 -33.7175
762 1 Ar 3.40367 13.4144 0.738957 0.467767 0.338718 -1.07302 11.6482 1.75046 -7.20719
773 1 Ar 3.85502 14.0617 16.748 -1.1734 -0.254498 1.50655 -2.44179 -1.96033 13.887
3575 1 Ar 6.04839 14.4446 1.82038 0.194787 0.443992 -0.313078 -5.07438 13.5983 -8.28844
740 1 Ar 5.38767 15.2393 1.069 0.841453 -0.0117199 1.41556 18.8227 -1.02196 -12.7445
3977 1 Ar 6.17111 14.5373 0.728145 -0.365684 1.83265 -1.65135 -3.69494 -12.7928 5.99388
3580 1 Ar 4.91352 14.1435 1.09587 0.472871 -1.54319 -0.380866 1.10023 -5.26977 1.50078
733 1 Ar 7.13321 14.6694 1.57701 0.462664 0.858212 0.670892 10.8337 -18.7346 -19.5044
694 1 Ar 6.82652 13.4849 0.814593 -1.80932 0.100746 -0.802201 -14.7219 15.3981 21.0058
747 1 Ar 9.45621 13.931 1.10411 1.71504 0.168252 1.12069 11.2422 5.00212 14.0179
337 1 Ar 8.64268 14.6053 1.39329 1.02671 -0.498715 -0.589533 22.3485 -5.12551 20.0604
3940 1 Ar 7.92875 13.9526 0.838252 -0.651883 -0.61213 0.378408 -5.23291 -5.90054 -2.19622
342 1 Ar 9.64837 14.9193 0.743652 -0.0607914 0.823025 0.964908 -36.1817 -5.01521 14.9844
788 1 Ar 9.95985 15.7233 1.4392 -1.94063 0.443072 0.164046 -1.31796 2.80456 1.99017
3951 1 Ar 11.2767 15.3815 1.40911 1.45492 -0.24567 0.774484 -0.311518 1.50851 -1.77691
345 1 Ar 11.8121 15.9146 2.39804 2.58132 -0.140099 -1.08834 3.75359 -32.7547 -13.5737
350 1 Ar 11.5627 14.5332 0.187988 0.973863 1.08735 0.953919 -5.89592 -0.809484 17.4691
790 1 Ar 13.267 14.7006 1.23433 0.468655 -0.481855 0.174902 -21.6242 -14.9674 -21.3664
387 1 Ar 12.4295 14.0854 0.982609 0.77801 0.68123 -0.654816 -7.26163 -9.04635 -2.6853
355 1 Ar 12.3801 14.7288 2.1376 0.114601 -0.30769 1.70063 -3.23266 -6.02577 -13.3642
3633 1 Ar 12.314 15.1248 1.08988 -1.28434 -0.00161841 1.69046 -11.4338 15.921 9.75131
681 1 Ar 14.5933 14.5249 1.3083 0.145038 -2.1038 1.71131 -9.05468 35.746 -6.76915
282 1 Ar 16.6871 14.5006 0.71585 -0.627334 0.0606365 0.332207 13.0711 17.313 -9.80659
398 1 Ar 0.0313199 15.2179 16.4272 -1.64947 0.476246 0.144456 -4.29192 -10.2241 2.84607
357 1 Ar 15.6803 14.2203 0.936908 -0.984647 0.677818 -1.4646 -4.27118 -4.23018 5.95551
758 1 Ar 16.4821 14.3054 1.76992 -1.562 0.670546 0.40939 8.16343 -1.14505 -4.66435