ITEM: TIMESTEP
6700
ITEM: NUMBER OF ATOMS
4000
ITEM: BOX BOUNDS pp pp pp
0.0000000000000000e+00 1.6795961913825074e+01
0.0000000000000000e+00 1.6795961913825074e+01
0.0000000000000000e+00 1.6795961913825074e+01
ITEM: ATOMS id type element x y z vx vy vz fx fy fz
434 1 Ar 0.0432954 1.33143 0.671304 -0.263898 -0.00151154 1.37127 4.72285 4.23469 1.26037
446 1 Ar 1.12282 1.01404 0.81414 -1.9332 -1.16462 1.11027 2.74119 -1.89564 2.03172
3966 1 Ar 0.480896 0.286703 0.276749 0.43122 0.427054 0.316903 1.70834 9.82223 10.7233
761 1 Ar 3.1312 0.270484 0.694804 1.05792 0.158706 -2.02189 -8.25632 0.664053 -7.29832
91 1 Ar 2.14759 0.430231 0.400786 -0.329101 1.34394 -0.656183 6.28684 -8.78446 32.326
487 1 Ar 2.51922 1.23106 1.28708 0.0456991 -0.0737914 0.439785 6.49814 -1.07679 -3.11343
12 1 Ar 2.28236 0.180469 1.59496 0.891405 0.416333 0.857134 -6.63151 6.97828 -8.6825
16 1 Ar 4.12158 0.309795 0.298943 0.0503015 -0.270077 -0.298181 6.84929 -23.9651 8.52524
93 1 Ar 3.7197 16.719 1.44374 1.54491 0.184109 0.271342 0.664026 1.75887 8.60077
1170 1 Ar 3.94328 0.978881 1.0639 -0.0657567 0.889717 -0.119857 2.13249 -0.876596 3.35524
457 1 Ar 5.18889 0.516034 0.946982 -0.501019 -1.43626 1.79801 -17.9378 -3.56003 -11.3985
14 1 Ar 5.79481 16.595 1.50204 0.275608 -0.0195773 0.33173 -1.13205 -5.88058 -0.42989
460 1 Ar 6.22853 0.206594 0.497266 1.2435 0.42295 1.20466 -1.86771 -3.29099 6.69905
375 1 Ar 4.73787 1.54382 1.62419 1.13417 -1.17243 1.1753 8.58672 -5.24094 -6.60541
64 1 Ar 7.61284 1.5633 0.29331 -1.24919 -0.592625 -1.59368 12.3284 22.4445 6.4933
456 1 Ar 6.82769 0.99696 0.0503254 0.205477 0.4024 -0.388257 -15.4325 -12.6762 -4.89164
780 1 Ar 7.61436 0.726186 1.00963 1.07708 -0.391481 -1.10108 -10.9033 9.86981 2.51857
3619 1 Ar 6.90226 16.3856 16.6782 0.240122 0.11704 -0.179819 -20.8526 3.1871 -22.9351
57 1 Ar 8.65209 1.5717 16.8244 0.974416 -1.46783 0.924151 1.46061 12.7537 -15.1577
24 1 Ar 8.40907 1.62624 1.07421 -2.70937 0.543255 -0.133219 -18.8552 -12.7847 3.42584
384 1 Ar 8.90955 0.689609 0.466244 0.845323 -0.722917 -0.0528275 -1.29792 0.00661825 14.9258
63 1 Ar 9.6802 0.6412 1.47013 1.37931 0.118094 0.77055 -6.12413 2.64291 2.07402
505 1 Ar 10.5117 0.889832 0.866314 -0.60374 1.34864 -0.723313 11.0855 -7.08717 20.6811
3627 1 Ar 9.84137 0.954539 0.128339 -1.40372 -0.372972 -0.00467716 -13.2133 -3.33884 -23.464
3625 1 Ar 11.5911 0.450381 0.988415 -1.0571 -1.12146 0.511185 5.84759 10.9882 -5.40484
3991 1 Ar 11.9173 0.718163 16.5412 -0.48161 0.814449 -1.52775 -5.37168 7.76472 -1.03146
473 1 Ar 13.9308 0.953183 0.592914 -0.462787 0.946925 0.183377 2.92145 -4.71751 -6.01293
34 1 Ar 13.2281 0.133199 0.962664 -0.294901 1.03329 0.176484 4.54562 0.27867 -1.55544
469 1 Ar 12.6144 0.998108 0.513017 -1.48573 -0.953199 -0.123864 -3.50586 9.10106 14.6183
79 1 Ar 15.2094 0.986943 0.268271 0.440499 1.74567 -0.335268 9.80958 8.10538 3.29358
35 1 Ar 13.9363 1.11276 2.08406 0.494318 -1.21698 1.58292 4.12594 -11.2729 -1.36639
800 1 Ar 13.3392 1.42646 1.28854 -0.995647 0.611291 -0.249699 -15.055 4.78459 -1.89925
437 1 Ar 15.7008 1.49446 1.09052 -0.185 0.223375 1.18894 -6.76865 -12.9928 -8.73324
438 1 Ar 16.0692 0.520476 0.764144 -1.32861 0.288419 -0.845432 -5.1122 -2.08158 -13.0363
764 1 Ar 15.5087 0.10625 1.54312 0.700919 0.434377 -0.396597 -41.3002 2.72708 2.96229
442 1 Ar 1.5697 2.57275 0.851015 -0.616301 0.375238 -0.112484 -8.83763 6.68204 -8.57929
481 1 Ar 0.90744 1.93727 0.244333 -2.04074 1.41964 -0.175571 2.78539 -6.10921 -1.58381
402 1 Ar 0.164667 2.53698 0.783284 0.10279 -0.383908 -0.000295344 -0.945836 -2.64778 -4.62859
84 1 Ar 0.89459 3.03046 0.0851766 1.84653 -1.2126 0.502956 -23.3556 -27.081 -0.235906
523 1 Ar 0.777543 3.65678 0.853771 -0.649544 0.16775 0.479659 5.58305 -2.45971 19.9093
46 1 Ar 2.06187 1.77187 0.490781 -1.32263 0.0385307 0.20075 12.5601 -16.7179 -0.961384
482 1 Ar 2.58651 2.79988 1.20601 0.210054 0.034035 0.337824 1.0711 -0.36292 -5.99207
489 1 Ar 3.20277 1.86541 0.591719 -1.05574 -1.71328 1.56992 -1.73336 -6.67469 -9.47283
410 1 Ar 3.36815 0.987454 16.662 0.736112 -1.37228 -0.646304 -2.80908 2.50619 -3.83989
413 1 Ar 4.23182 2.12332 0.182394 0.545955 1.14683 -0.0471537 -0.155206 -10.9142 -5.70614
529 1 Ar 4.72674 2.43324 1.01538 0.146087 0.594787 0.0724425 5.16582 7.43832 17.2956
454 1 Ar 5.8904 2.04033 1.34879 -0.138329 -1.74461 -0.0477479 -10.1001 6.16819 12.2534
500 1 Ar 5.41654 1.61305 0.516173 -0.516722 0.548391 -1.0036 -4.82968 -3.69365 -8.71915
3657 1 Ar 6.0916 3.61457 0.434841 -0.91775 0.555068 -0.122933 13.7715 3.96107 -4.56873
3659 1 Ar 6.32139 2.10548 16.7203 0.0992334 0.0223281 -1.44323 -3.99526 -4.7513 -9.68629
493 1 Ar 7.53866 2.7208 1.11452 -0.150663 -0.890269 -0.470661 11.5554 3.4639 2.19289
894 1 Ar 6.57364 2.61899 0.763828 -0.314356 0.749726 0.79479 -18.4132 1.35015 17.0896
379 1 Ar 8.77247 2.55724 0.791187 0.590512 -0.877344 -0.303547 -6.43322 1.12673 -3.54201
54 1 Ar 9.0858 2.92064 2.63421 -0.547228 -0.334686 -0.188079 2.69111 -6.61016 -21.6034
58 1 Ar 9.06071 1.48764 1.88321 2.17078 0.714378 -1.60547 -18.6551 16.3776 17.8063
25 1 Ar 10.559 1.70383 0.170135 0.553999 0.68941 0.640143 5.17392 22.1123 23.7696
68 1 Ar 9.57236 3.19163 0.660498 0.455869 -1.19546 -0.431947 20.0744 2.74631 13.138
467 1 Ar 10.359 2.46044 0.994785 -0.102282 0.488002 0.0708177 13.5482 3.9039 -14.0619
862 1 Ar 9.6187 2.38287 1.68462 0.42582 -1.01178 0.104697 -27.6323 10.737 -12.4846
108 1 Ar 10.9645 3.16665 1.75633 0.31145 0.949592 0.686499 8.16647 -9.51637 16.9681
466 1 Ar 11.7827 2.43298 1.52725 1.54518 0.298345 -1.38784 -9.23879 -16.6504 0.916427
912 1 Ar 11.5705 1.43259 0.432648 0.264641 1.63324 0.0409106 9.06651 -7.76061 -13.6313
32 1 Ar 11.4026 2.52553 0.393596 0.235992 -0.56397 -0.241265 -5.01001 -1.93199 4.30255
31 1 Ar 12.2485 1.89028 16.5657 -0.96127 -2.45153 0.321833 5.89358 11.8205 15.7342
29 1 Ar 12.5871 2.45203 0.897422 0.53334 0.482914 0.360551 8.07398 -8.91184 -5.49002
513 1 Ar 13.4736 3.0908 1.43854 0.182938 -0.490623 -0.173342 27.6389 -3.65924 -25.6643
71 1 Ar 13.4254 1.96478 0.341973 -0.80623 0.143308 -0.570696 1.37818 1.63659 -1.55588
3714 1 Ar 13.0253 3.27578 0.427044 0.132666 0.154389 -1.01619 12.2996 20.5073 15.1693
36 1 Ar 14.6467 1.65516 1.19723 -1.52808 0.103116 0.257621 -6.08712 -4.15561 -13.0237
441 1 Ar 16.4122 1.73159 1.77636 0.606651 -0.0231253 -0.843435 20.7547 2.77077 -0.105302
3674 1 Ar 15.0855 2.2736 0.337224 0.732096 0.192654 0.886974 13.2926 -19.2851 -5.30266
525 1 Ar 1.08433 4.40082 0.104245 0.690949 -0.169896 -1.40026 1.83339 -15.9995 -3.47592
124 1 Ar 0.342071 4.58143 0.886194 0.605587 -0.525411 -0.685355 -14.2114 12.9787 -9.34387
524 1 Ar 0.83029 4.93869 1.69777 0.426173 -0.910378 -1.83612 -0.443112 40.0972 -0.602565
486 1 Ar 1.85437 3.52225 0.644154 0.354797 0.668552 0.333009 5.63099 16.2901 -8.01347
565 1 Ar 2.52257 3.84843 16.4365 0.220835 0.791268 -0.03352 -26.958 7.72629 -20.6172
48 1 Ar 2.7736 2.63109 16.8054 0.862044 0.653787 0.969341 -2.88592 3.65696 6.00433
893 1 Ar 2.9511 4.71403 0.993602 -0.507043 0.645136 0.0874997 3.95459 6.00212 0.717598
92 1 Ar 2.94278 3.62522 0.505154 -0.156342 0.441311 0.844874 17.7704 -6.18811 26.843
3689 1 Ar 4.37591 3.18885 0.0724993 0.614446 -0.0942973 -0.725432 -0.237246 6.48911 0.539067
133 1 Ar 4.52482 3.52099 1.63044 0.89207 1.29296 0.619206 -3.95025 -14.2889 -8.23792
129 1 Ar 3.9734 4.30016 0.868348 0.611865 -0.18615 0.397839 4.83311 -10.9358 7.41773
3692 1 Ar 5.50771 3.1493 1.32263 -1.45532 1.03593 1.117 11.2964 -5.23446 18.0596
3731 1 Ar 5.03512 3.85749 0.711174 -0.650413 -0.728334 -1.99283 -17.7336 1.69555 -16.4482
90 1 Ar 6.73825 4.46143 1.68806 -0.0519603 0.156355 0.61985 -8.55322 27.0648 -51.4827
136 1 Ar 6.61116 3.4572 1.44586 0.427485 2.21368 -0.522096 -8.92167 -17.0003 4.29872
534 1 Ar 6.8302 4.30441 16.6956 0.159264 0.193857 -1.40735 -7.64676 -5.3846 4.46836
61 1 Ar 8.44997 3.65166 1.17838 0.134353 -1.38147 -0.160049 9.29404 -4.49104 -5.52537
494 1 Ar 8.67753 5.11773 1.13733 -0.400826 0.368049 0.0872827 -5.9796 -8.88986 -1.2443
898 1 Ar 7.25832 3.99075 0.855715 -0.175507 -0.884226 -0.172944 1.69088 0.892155 -20.0914
98 1 Ar 7.13794 3.16623 0.125207 1.09731 -0.602367 0.268883 1.9271 8.41393 -13.2423
102 1 Ar 10.2586 5.05142 0.0729637 -0.0883815 0.578288 -1.77136 9.88996 7.38329 10.7011
3704 1 Ar 9.96206 3.96899 16.7616 1.03107 -0.383075 -0.222688 16.0895 -9.53533 -15.3259
112 1 Ar 10.6161 3.65482 0.939905 -1.25897 -0.18401 -0.96428 5.73378 -10.9699 -16.9242
76 1 Ar 11.2538 3.69196 0.0330968 -1.3539 0.528011 0.389201 -7.62387 -9.35018 34.9819
75 1 Ar 11.865 3.30585 1.02631 -0.888421 1.02074 1.0264 2.88169 23.0912 -9.72101
3747 1 Ar 12.4835 4.25697 16.688 1.23828 -1.28117 0.182577 1.88912 -16.3078 -5.06716
73 1 Ar 12.6725 4.23956 1.03965 -1.22153 0.869602 -1.31847 3.11987 -4.2617 -7.48848
546 1 Ar 11.8253 4.29227 1.73984 0.508399 -0.647676 -0.505201 9.24194 -8.55294 -12.1954
146 1 Ar 13.5387 3.69529 16.3213 -0.271777 -0.101671 -0.747075 5.83483 -6.89856 34.8774
553 1 Ar 14.8676 2.63651 1.69609 -0.298803 -1.09563 -0.846699 4.68976 5.45617 -0.297817
114 1 Ar 14.4949 3.80315 2.11088 -0.498995 0.24692 0.552398 11.0429 -1.11117 -7.47244
109 1 Ar 14.2515 2.65015 0.798047 -0.252174 -0.744921 1.58247 -17.3909 -1.86623 3.5448
153 1 Ar 14.1091 3.73829 0.890497 2.00975 -0.0978716 -0.466704 -0.341229 6.88893 -3.51557
120 1 Ar 16.5284 3.53658 0.839963 -0.806681 1.00469 1.42779 -2.94067 -2.63985 -6.00941
3683 1 Ar 15.9068 2.50289 1.00696 -0.143475 -0.59192 0.0643104 0.757542 13.6289 6.72842
81 1 Ar 15.0317 4.33695 0.788011 -0.317283 -0.987623 -1.44024 3.26353 3.63778 -6.37737
163 1 Ar 1.51355 4.3291 1.3216 -0.516249 0.395946 -0.633077 21.8693 -13.1748 -11.9698
200 1 Ar 0.0821341 5.77157 1.00433 -0.412612 1.75816 1.55675 1.08049 -20.5147 -4.13509
3725 1 Ar 1.18639 5.41302 16.7778 0.793838 -0.0775273 0.0209274 -1.00056 12.4653 -2.10399
522 1 Ar 2.12618 4.81421 0.0561744 -0.665453 0.154736 -0.0452184 -16.3921 -14.6128 3.00856
157 1 Ar 2.68203 5.5585 0.455051 1.48451 -0.393289 -0.10944 0.875347 22.7872 -5.42363
173 1 Ar 1.74697 5.31876 1.07914 -0.87304 0.463665 -1.36952 2.45597 -0.848217 -11.2628
3726 1 Ar 1.38564 6.13324 15.9771 1.08397 1.03365 -0.845757 -17.9409 23.5641 11.568
3775 1 Ar 4.60869 4.63106 16.7612 -0.133108 0.196847 -0.43503 -12.7019 -12.8557 -6.02661
132 1 Ar 3.48965 4.18173 16.5027 -0.0447487 -1.7087 0.48821 6.00959 17.1494 23.5005
3772 1 Ar 3.51605 5.83771 1.00787 0.317441 0.0596772 -0.249795 -8.01401 12.0932 -19.6379
3732 1 Ar 3.66011 5.08112 0.265618 0.588583 0.462047 0.631904 -11.2253 3.69355 -14.295
130 1 Ar 5.50376 5.27988 1.09465 0.213125 0.682984 1.29433 -26.2633 -15.5018 2.553
174 1 Ar 4.52529 5.48206 0.645211 -0.172165 -1.0853 0.689329 -0.211854 10.844 19.4134
3375 1 Ar 6.05244 5.88077 0.554214 -1.234 -0.809026 0.0422839 0.68678 11.1232 -26.2435
573 1 Ar 6.45131 4.90542 0.737117 0.447309 -0.101267 -0.557633 12.4969 0.203619 0.0150369
974 1 Ar 7.70759 5.6175 1.61587 1.49267 -0.0651591 -0.639082 2.67585 -15.8738 -2.11613
977 1 Ar 8.33653 6.37988 1.75126 0.882836 0.975973 -0.0703253 -5.94029 11.276 -8.45895
539 1 Ar 9.64475 5.50138 0.896784 0.222942 -1.26711 0.357683 8.84286 0.391797 2.96366
544 1 Ar 10.2537 6.54986 0.66512 -0.387628 -0.760191 -0.84767 -10.2521 -5.16604 -5.393
138 1 Ar 11.7235 4.9415 16.6565 -0.886352 0.0836155 0.211276 -11.0739 10.1369 -3.80138
145 1 Ar 12.0226 5.98741 0.138993 -0.376712 -0.480466 -1.35511 5.33372 -2.02089 0.900845
506 1 Ar 11.0931 4.60173 0.688902 -1.6015 -0.384646 -1.34109 -10.5832 -4.29779 0.824121
148 1 Ar 11.0265 5.80802 0.743891 -2.00874 1.44095 0.423633 10.7399 -11.3455 -6.93583
189 1 Ar 11.91 5.19056 0.94246 1.18059 -0.481034 -0.257462 28.2024 5.84587 -8.78702
950 1 Ar 12.1723 7.27116 0.325031 0.441626 0.292163 -1.89502 5.20371 1.17799 -0.31532
151 1 Ar 13.8643 4.83071 1.12981 1.56414 -0.537616 -2.61637 2.68893 -8.98269 1.89376
559 1 Ar 14.8322 5.50961 0.83265 0.214265 0.119665 0.0249415 -3.99983 -4.67035 3.41097
117 1 Ar 15.0686 4.73452 1.74916 1.21291 -0.791415 -0.106114 -4.90429 -5.77124 3.47812
560 1 Ar 14.7938 5.98965 1.78391 0.971525 -0.354593 0.897681 48.076 13.9662 15.8376
155 1 Ar 13.4501 4.52994 0.169956 -0.995364 0.51996 -0.837643 10.8323 -4.16304 17.8275
159 1 Ar 14.9402 5.00102 16.6825 0.136833 -1.02988 1.30304 3.0659 -5.37875 -4.26467
561 1 Ar 15.9503 4.94628 0.407177 0.258459 -0.7874 -0.874838 -10.5222 23.5517 -26.2154
121 1 Ar 15.7594 5.4253 1.42113 0.990478 0.587678 0.54862 8.73661 5.44148 -7.17324
602 1 Ar 1.13091 7.22027 16.7279 -0.42157 -0.914812 0.148567 3.87334 1.72525 -7.26561
609 1 Ar 1.64202 7.20645 1.22022 0.917563 -0.152592 1.74734 -29.2164 46.2004 -17.0942
922 1 Ar 0.361043 7.49399 0.649994 -1.19921 -1.64554 0.508587 -0.565316 10.2166 6.26729
564 1 Ar 0.818648 6.52371 0.651898 -1.40362 -0.750401 1.04354 -4.10966 -9.81406 9.46139
126 1 Ar 1.80923 6.18267 0.422956 -0.139384 -1.09822 0.0258551 -10.1023 -1.30205 -22.0159
167 1 Ar 1.38259 8.08685 0.610113 1.03222 -0.547987 -1.64849 -22.6592 3.38629 20.5247
1010 1 Ar 2.40755 7.89028 0.66686 1.16674 -1.58206 0.164257 12.2098 -16.957 3.75313
566 1 Ar 2.9367 6.76432 0.143667 0.443059 0.0183426 -0.394447 -0.809406 -4.32628 13.21
620 1 Ar 4.11648 6.3261 16.6389 -0.0919439 -0.125342 -0.47697 -21.7917 -4.4302 0.889248
3016 1 Ar 4.90502 7.77202 0.27386 0.164385 -0.910267 0.197191 -1.56844 -16.9884 7.37099
171 1 Ar 4.37775 7.24073 16.1074 1.60364 -0.412361 0.476186 0.553473 1.3029 0.169321
3817 1 Ar 5.14503 6.34881 1.1802 -0.791263 -0.641092 -0.0637508 6.3636 -21.6021 -14.4585
3774 1 Ar 5.04797 6.57463 0.144929 -0.881352 -0.65756 -0.0241336 12.8187 2.21674 0.223089
653 1 Ar 4.38098 7.01549 0.851067 -0.595892 -0.106928 -0.564583 -6.61449 1.72929 -1.50804
3779 1 Ar 5.95927 7.62455 0.58477 -0.540335 -0.438319 -0.743613 4.876 -5.48593 6.71895
3780 1 Ar 6.69013 6.64478 0.659347 -0.339327 1.26449 -0.484255 10.5619 36.3247 -12.8517
141 1 Ar 7.99377 7.75204 0.836357 1.48155 -0.143924 -1.46204 -1.84861 -0.54741 -7.9346
3740 1 Ar 7.69555 6.2098 0.67037 2.03163 0.0906192 0.957005 1.61681 -0.914169 0.816774
585 1 Ar 9.38926 6.71867 1.34016 -0.226647 -1.50145 0.0991895 70.2863 -35.0822 -0.931613
219 1 Ar 8.79078 6.18509 0.820479 0.925415 0.999407 -0.0364166 -30.5102 -27.4454 -37.0614
3785 1 Ar 8.7054 7.34208 1.54238 0.0787132 -1.50363 -0.713677 -50.4551 5.57212 -23.1864
545 1 Ar 10.4789 5.9763 1.58963 -0.291246 0.142612 -0.484397 -10.1644 11.3847 8.3092
3836 1 Ar 10.5442 7.15555 1.47657 -0.499131 0.826538 -0.32032 -18.0849 -8.0718 14.2063
183 1 Ar 9.22523 7.16489 0.267922 -0.352885 0.241625 -0.315607 1.48579 -2.08748 13.7236
192 1 Ar 11.4922 6.8798 1.28729 -0.515623 -0.219446 -0.506235 -1.22611 -2.33168 -0.934095
229 1 Ar 11.4113 8.05072 0.364849 1.2416 0.623679 -1.21185 30.1257 -11.2045 -39.9475
3757 1 Ar 12.7345 8.72412 16.315 0.794059 1.15864 0.256489 28.4343 -11.7301 7.86927
187 1 Ar 11.2546 6.73097 0.241839 0.92987 0.202702 0.151759 -5.51845 10.9006 -3.50828
190 1 Ar 13.0089 5.52712 0.824497 0.271274 -0.255421 0.500572 1.35642 4.91189 -6.32654
595 1 Ar 13.2279 7.80762 16.6796 -0.945912 -0.75711 0.191075 -1.029 -7.02995 -11.991
193 1 Ar 13.6118 7.80287 0.888511 -0.862604 -0.657408 -0.00351149 -18.1844 7.23631 16.1647
554 1 Ar 15.0282 6.067 16.7364 1.24488 1.45772 -0.904123 -6.65191 11.2287 -14.6794
960 1 Ar 14.1939 6.56817 0.826707 -0.0643205 -1.78671 -0.553396 9.81824 8.07963 -5.95324
149 1 Ar 13.9374 5.99179 16.7424 -0.784357 0.848968 -0.185866 -5.03789 -13.292 3.13937
518 1 Ar 15.8007 6.13525 0.617391 -0.357593 -0.0608476 0.742075 5.19317 -4.05032 8.35332
158 1 Ar 16.0146 7.60664 0.830612 -0.0608502 0.241241 -1.03108 19.8282 12.3486 3.87476
3790 1 Ar 15.229 7.30032 0.242525 0.504529 -0.431606 0.244898 -17.4766 -12.8057 8.51267
597 1 Ar 15.5051 6.87808 1.37732 -1.09882 0.0812479 1.33896 -14.3509 -5.65794 7.44569
201 1 Ar 0.285433 8.57485 0.8683 0.547725 -0.733884 0.841804 23.4542 -12.3495 -1.89658
568 1 Ar 16.6278 8.10811 2.06119 -0.373911 -0.197153 0.475599 1.71942 -0.198767 -3.31593
207 1 Ar 1.25613 9.15827 1.03322 1.4298 1.05203 1.0829 -2.55988 -2.06439 -5.07145
209 1 Ar 1.86157 7.99388 16.5188 -0.0154726 0.692466 -0.609659 13.4838 -16.2675 -12.5861
170 1 Ar 2.08911 6.88801 16.2755 -0.0827048 -1.66066 -0.107726 -1.84653 -3.30089 9.75187
243 1 Ar 3.5715 7.68763 0.126246 -0.291096 -0.466258 -1.72882 3.07273 -1.66424 -0.303409
216 1 Ar 4.12219 8.45754 15.7434 -1.13787 -0.586715 -0.9897 -10.123 -5.65258 -1.59237
651 1 Ar 5.09293 8.13154 16.0969 -1.02054 -1.16213 0.991886 -7.03213 -18.0511 -19.7562
297 1 Ar 5.85711 8.74766 0.731715 0.494093 2.07208 -0.867763 13.05 8.14377 -25.8828
3451 1 Ar 4.88923 8.77228 0.0430527 0.573067 1.19335 -2.49075 2.57242 25.452 13.2653
3819 1 Ar 6.07664 8.26199 16.5484 0.55533 -0.822074 0.321985 6.16214 7.86296 4.02084
218 1 Ar 6.89303 8.88341 0.348996 0.409392 0.317051 -0.702625 -3.44664 -7.10037 1.13675
224 1 Ar 7.98063 8.62039 0.159252 -0.259521 1.71157 -0.271159 -3.02538 -8.87845 -2.04524
184 1 Ar 8.85612 8.40203 0.971325 -0.51282 -0.627115 0.348032 -0.979259 2.43082 4.35405
223 1 Ar 6.84089 9.21244 15.7136 -0.758009 0.342679 -0.253762 0.507331 -23.5874 -2.41728
586 1 Ar 9.68365 7.70533 1.19852 1.44179 0.382607 0.692278 -34.4835 7.33226 3.2838
625 1 Ar 10.5651 8.87838 1.2933 -0.886892 -0.320462 -0.764871 33.5755 20.2167 0.846457
3787 1 Ar 9.84067 9.00094 0.629971 -0.540995 0.282637 0.203577 5.16609 5.34474 1.03852
3796 1 Ar 11.7777 9.76067 1.13768 -0.16657 -0.172136 -0.276534 10.558 0.812691 37.1321
669 1 Ar 11.4413 9.05067 0.52185 0.649605 0.20434 -0.0948506 -1.36107 -9.08152 -6.82422
186 1 Ar 10.557 7.93094 0.822173 0.670976 -0.8343 0.934216 -16.8124 20.1965 -15.1801
195 1 Ar 12.5841 9.44143 0.411699 0.165181 -0.946275 -0.0247811 -15.3025 -36.2138 13.7115
197 1 Ar 13.5523 8.85776 0.216037 0.641334 -0.347503 1.57953 2.16603 5.52535 -0.383811
636 1 Ar 12.8549 9.47535 1.61918 -0.0703311 0.275741 0.252716 -2.62813 2.36821 -7.92451
3831 1 Ar 14.4795 9.70806 16.5572 0.245126 -0.0566633 -0.879621 3.55839 -2.40185 -3.67973
3753 1 Ar 14.0277 8.40525 16.153 1.11216 -0.0812188 0.222109 -1.93436 -5.98159 -0.424161
237 1 Ar 13.9186 8.928 1.2124 0.503655 -0.97183 0.830102 -4.92729 8.15517 0.745325
3798 1 Ar 14.5109 8.06363 1.30024 0.413705 0.518351 2.22929 10.9029 -10.5211 15.0985
603 1 Ar 15.5686 7.97108 1.74828 0.677554 1.21284 -1.20852 -1.44409 -5.62359 4.69743
3439 1 Ar 15.3063 8.64154 0.945707 0.55489 0.510347 -0.285236 -0.923742 -8.51175 -5.12385
3808 1 Ar 16.1497 8.57818 0.145419 -0.047567 -1.18684 -0.375166 -6.42793 0.149362 6.3856
279 1 Ar 16.7266 10.3691 0.139307 -1.37731 -0.960318 0.0234856 11.8214 6.95026 -4.75459
717 1 Ar 0.10136 9.33367 0.171096 0.79448 -0.707937 -1.14165 1.75017 -7.76891 -35.0207
641 1 Ar 0.412357 9.10324 2.02512 0.601974 -0.563766 0.984046 -28.4142 -10.479 -12.0992
608 1 Ar 0.13483 9.71136 1.08717 -0.789608 0.51242 0.370115 4.20161 -4.43553 2.76549
612 1 Ar 2.46994 8.92316 0.668791 0.361439 0.240045 1.30433 3.99943 -16.7599 8.26358
647 1 Ar 2.09033 9.7957 0.33893 0.334549 0.606216 -0.578942 -18.9748 38.4878 7.30308
649 1 Ar 3.17655 9.70346 0.605003 0.113261 -0.829144 -1.30082 11.7454 -15.8466 29.0024
3816 1 Ar 4.22421 10.0264 16.5229 1.44131 1.34528 -1.56932 13.6589 -10.1124 12.042
3856 1 Ar 3.31266 10.5347 0.08978 -0.213855 0.948115 -0.792806 2.62976 18.2684 -27.2509
291 1 Ar 2.77078 9.3726 16.5244 0.947082 -1.05589 0.889289 3.92418 -11.9472 -29.4127
689 1 Ar 4.2425 10.4017 0.722196 0.82795 0.868047 -0.0759885 -12.0222 14.3535 -18.5059
217 1 Ar 5.13574 9.79782 0.437363 0.520774 0.124719 0.0810722 5.97981 -8.41972 -0.614727
655 1 Ar 6.27354 10.4467 0.025819 -0.249564 -0.562901 0.432743 40.7665 -19.4027 48.3463
253 1 Ar 7.79835 9.65022 2.43819 0.380246 -1.24063 -0.658784 -16.3797 11.4406 -6.45915
3815 1 Ar 4.83331 9.33863 15.8997 -1.24109 -1.48426 -0.72769 5.62266 -17.9288 2.13869
258 1 Ar 7.1932 9.90128 0.348404 0.386982 0.0397526 0.696129 -4.13897 6.98744 10.3943
665 1 Ar 8.24903 9.71091 0.81248 1.11535 -0.753439 0.75125 -4.97828 0.543847 -3.82578
668 1 Ar 8.81698 10.7268 1.36149 -0.419698 0.0484645 -0.742097 38.3525 -5.94431 8.61229
222 1 Ar 9.31245 9.78139 1.06553 -0.695126 0.596994 -0.0192437 -3.42417 4.18305 3.14977
626 1 Ar 10.2497 10.4226 1.12231 0.471907 0.498921 0.0641946 5.47938 -5.06736 16.8844
672 1 Ar 10.8855 9.92156 0.424483 0.628507 -0.916158 1.30117 -9.62044 4.95034 -5.74687
996 1 Ar 11.848 10.3964 0.368562 0.487726 0.139798 0.684107 -7.31165 8.73135 -17.0164
227 1 Ar 11.3753 9.85391 16.1764 0.189204 0.305995 -0.786238 -8.15614 -5.29791 4.81025
267 1 Ar 10.3169 10.5623 15.9696 0.847596 -0.880283 -0.720166 -4.20296 0.127598 5.21976
194 1 Ar 13.881 9.97325 0.590735 0.161408 0.12869 0.355081 -21.3674 10.8139 -8.62176
273 1 Ar 12.8421 10.3502 0.751847 -0.0490941 -0.202292 1.2899 6.03668 21.9547 4.49423
353 1 Ar 13.5719 10.2971 1.54057 -0.478689 -0.82883 0.531248 -2.39432 3.8273 4.36064
3835 1 Ar 12.4373 11.0942 16.6923 -1.06477 -0.378743 1.24236 13.5508 3.42964 -12.6821
311 1 Ar 14.3802 11.4646 1.4252 -0.523554 0.895589 0.608856 -1.518 -0.259093 0.108798
3435 1 Ar 13.7403 10.7879 16.1945 -1.13509 0.142134 -0.770932 -5.71961 -35.2192 10.3976
199 1 Ar 16.6079 10.7581 1.09786 1.31967 -0.741724 0.911096 13.7478 -0.445849 -7.02532
3795 1 Ar 15.0389 10.4044 0.368272 -1.44853 -0.319704 0.688924 -8.28928 -3.19928 8.59054
277 1 Ar 15.9339 9.97011 0.642323 0.903916 -1.08874 -0.449901 0.256405 -23.2071 25.6937
720 1 Ar 14.7031 9.45009 0.814555 -1.2643 -0.170993 0.250098 24.4195 5.24394 0.0222782
212 1 Ar 0.807385 10.9862 0.935698 -0.322489 0.733523 0.726124 7.54205 1.96989 4.39911
687 1 Ar 0.468266 10.9494 2.02117 -0.0192525 0.656178 0.217934 -3.51309 -3.34817 -18.3482
685 1 Ar 1.57239 11.8164 1.34341 -0.490289 -0.401759 0.910917 7.30787 -6.15292 5.03109
241 1 Ar 0.33472 11.6709 0.356632 -0.987276 0.0151969 0.858658 -1.78138 18.308 3.14
245 1 Ar 2.49367 11.8393 0.622034 -0.581201 -0.175987 1.6589 11.0828 -25.8783 7.33988
696 1 Ar 4.62458 11.1029 16.5058 -1.00923 0.562664 0.865313 -10.9239 10.0089 -0.784876
249 1 Ar 3.60954 11.6157 0.327555 0.799397 1.40131 0.433955 13.62 7.37785 7.60251
3893 1 Ar 3.59635 11.7763 16.1222 -0.430204 0.210099 0.0522595 1.12069 -1.03501 -0.636892
1089 1 Ar 4.82464 11.9907 0.734613 0.345535 0.380602 0.788109 11.9879 -2.02336 -7.00113
250 1 Ar 5.70257 11.5829 0.134538 0.229161 -0.751701 -0.468006 -22.2616 -18.2008 -31.5468
3895 1 Ar 5.49559 10.6641 0.91915 -0.452307 1.01881 -0.738373 -0.339139 1.31571 -12.7491
3860 1 Ar 5.41015 10.4326 16.4324 -1.10571 -1.00793 -0.414292 -52.5314 3.72118 -25.2572
294 1 Ar 6.70072 11.3714 0.177361 -0.080579 0.195689 -1.60626 26.7902 2.68357 18.7042
257 1 Ar 7.69686 11.8549 16.7121 0.725439 0.840091 0.698967 1.75662 -14.611 1.7616
293 1 Ar 7.69645 10.7307 16.6697 0.587628 0.423649 0.823804 -1.16412 1.44646 -0.238566
3904 1 Ar 7.82874 10.6098 1.36506 0.0109257 0.149429 0.822073 -34.8412 -21.543 8.4674
3867 1 Ar 8.21809 11.4206 0.913046 -0.72938 0.0831177 1.39162 24.6765 26.2626 -27.8578
232 1 Ar 9.72785 11.6232 1.13736 -0.61587 -0.159184 -0.114853 8.91521 -0.755534 -35.1732
3823 1 Ar 9.89347 10.8406 0.280613 -0.462871 -0.504633 -0.588135 -10.1842 7.11385 -21.5338
300 1 Ar 8.71005 11.2058 16.6429 -1.4834 1.25753 1.04135 -2.64057 7.49184 18.6974
309 1 Ar 11.1735 11.2667 0.800104 1.35812 0.480334 -0.691376 0.388362 -1.06896 4.5194
3866 1 Ar 11.7607 11.938 16.6826 1.60836 0.199655 0.398367 -17.7133 -1.55677 16.5817
270 1 Ar 12.2275 11.4668 0.864148 0.460724 0.283672 -0.883417 -0.222078 -2.33281 11.9075
3949 1 Ar 13.9074 12.3841 0.383258 -0.282906 -0.45239 -0.953645 14.1325 -14.9487 0.471299
351 1 Ar 12.4266 12.7364 0.995092 -0.634424 -0.167546 -0.709981 1.5946 6.17632 -4.71886
671 1 Ar 13.5882 11.2459 0.389484 -0.526324 1.06437 -1.53486 -0.553373 -0.604898 3.08405
670 1 Ar 14.5833 12.5723 1.21773 0.117208 1.98779 0.386878 4.61803 0.904023 4.70055
3876 1 Ar 15.1718 11.7587 0.57695 -1.38312 0.665537 -0.694148 -2.14553 0.123685 11.5139
315 1 Ar 15.6012 10.8293 1.20844 0.137979 1.74008 0.373479 -8.28157 -8.46379 -31.6715
319 1 Ar 16.3066 11.8589 1.13364 0.662562 -0.385666 0.266629 16.18 -20.8881 -2.44777
318 1 Ar 16.0177 12.2793 0.247685 -0.957706 0.171757 0.859333 4.67844 18.9607 -14.1155
275 1 Ar 16.1558 11.2448 0.245989 -0.178362 0.0339629 0.155184 -12.554 -14.6097 3.81831
692 1 Ar 2.063 13.0541 1.45507 -0.524871 1.69232 -0.0211054 -2.06164 0.419049 0.399294
321 1 Ar 0.203618 12.6106 1.31283 1.51883 0.870784 0.115683 -26.7048 13.6493 -17.3337
288 1 Ar 1.04602 12.5385 0.79117 1.44308 1.40494 -2.40518 14.2555 3.99412 -11.5298
766 1 Ar 2.05343 12.6955 0.418149 -0.0394657 1.42059 0.0149902 1.42162 43.9273 44.5152
3892 1 Ar 3.01775 12.6314 1.12331 0.0780556 0.131654 -0.275622 -15.1088 13.1715 16.6874
3925 1 Ar 2.58682 13.7719 0.480089 0.514034 -0.875739 1.01294 -12.1607 -20.1142 -4.4108
1090 1 Ar 4.02995 12.6077 0.989024 -0.209858 -0.910908 1.30899 -0.365655 1.92778 8.59188
1456 1 Ar 4.69387 13.3305 0.63692 -0.30745 -1.48295 0.389164 -7.83072 -7.63648 -13.2916
690 1 Ar 4.02296 13.7641 1.42788 0.391167 -0.112681 1.22382 -14.5962 -7.12709 -11.387
729 1 Ar 4.19355 12.549 16.7369 1.49115 2.01816 -0.581431 8.93411 -25.0322 6.8962
3967 1 Ar 3.65211 13.2677 16.1982 -0.0204959 -1.04476 -0.584295 -54.7088 33.4252 24.7628
332 1 Ar 5.56765 12.8478 1.13384 0.805921 0.140845 0.0332589 -2.75969 -10.7188 -7.67622
3900 1 Ar 6.82509 12.6076 0.691201 0.225198 -1.05703 -0.60348 -7.73874 -10.8237 -8.56605
700 1 Ar 6.77828 12.7556 1.73397 0.244349 -1.23092 1.57892 -6.03064 27.6737 -3.11841
1094 1 Ar 5.58601 12.5973 0.0215376 0.546873 0.267662 -0.596583 2.36533 22.3232 4.80648
295 1 Ar 8.72696 12.4736 0.104771 -1.88244 1.13498 0.133134 -1.08483 -1.371 0.636297
302 1 Ar 7.84371 12.4823 0.861418 1.30896 0.0968626 -1.07879 14.6014 -5.81893 1.64438
662 1 Ar 8.90883 12.4645 1.38015 1.23262 -0.537786 -0.611554 -20.6376 -10.4 4.99362
707 1 Ar 9.70844 12.7451 0.827126 0.671504 -0.233547 -0.592285 6.52422 12.3573 -23.3873
705 1 Ar 11.3918 12.5363 1.76538 0.103981 1.40367 -0.046283 24.1772 -8.20131 -9.44519
305 1 Ar 8.7191 13.3763 0.881143 -0.0937345 -0.261781 -0.593889 25.2906 -0.390741 -12.1873
749 1 Ar 10.7285 13.2566 1.55685 1.45094 -0.0934706 -1.16816 -8.9784 19.2513 -0.973094
3512 1 Ar 10.5938 12.2689 1.12548 -0.536276 -0.592201 -0.421421 5.7385 -7.41035 -5.16024
385 1 Ar 12.3371 13.0356 16.624 -0.140759 -1.19353 0.910654 -74.9843 -2.83222 -11.7114
354 1 Ar 13.2234 13.0896 0.138302 -0.773315 -1.13965 0.997401 52.6921 6.30207 25.6706
316 1 Ar 12.4118 13.6329 2.07441 0.92891 0.308403 -0.571077 14.6067 -6.75936 -9.22643
3912 1 Ar 13.701 14.5889 0.645815 0.448154 -0.938058 0.0429731 -5.92547 14.5065 7.32778
3959 1 Ar 14.4465 13.4521 0.203594 -0.597698 -0.587618 1.18098 -12.9106 -31.6732 -2.12196
393 1 Ar 14.1361 13.8385 1.41199 0.186762 1.1844 -0.931067 12.8821 9.96846 11.5404
39 1 Ar 14.6573 14.3221 0.63394 -0.437868 1.45447 0.267292 37.7877 8.686 0.693013
278 1 Ar 14.9341 12.4503 16.2003 -0.254004 -1.75308 0.798106 -8.50552 -4.22732 15.3215
3515 1 Ar 13.9008 12.9752 16.0815 -0.846877 0.67348 -0.662555 6.47732 0.21755 -1.43953
317 1 Ar 16.3519 13.566 0.917384 -0.456462 1.51992 -2.21128 2.18611 0.858753 -5.66788
3924 1 Ar 15.5067 13.2498 0.26551 -1.15309 0.375842 -0.954995 4.1921 -4.02569 -9.77697
677 1 Ar 0.606215 13.5688 1.79693 -0.399204 -0.346933 0.629463 -7.69931 -12.6767 49.6662
368 1 Ar 0.665804 13.66 0.840389 -0.170477 -0.482965 1.17925 -12.2451 -1.11958 -51.7079
325 1 Ar 0.4014 15.5534 1.31394 0.196234 0.856859 0.300795 5.14837 0.40255 2.39559
362 1 Ar 0.947544 14.8819 0.320509 -1.43379 -0.509661 0.543939 -1.24366 -15.6179 3.05737
686 1 Ar 3.19485 12.6015 0.130725 1.58204 -0.081199 -0.520264 -18.7548 0.96559 -17.0475
367 1 Ar 2.93166 13.9261 1.62005 0.840287 0.714443 -0.989766 4.80062 -24.4566 -1.93992
361 1 Ar 1.61741 14.0198 0.92897 -1.45599 -0.424932 0.00617489 16.604 5.45091 -2.4419
17 1 Ar 3.21966 14.5305 0.710158 -0.220182 -1.44559 -0.581526 12.3359 18.9263 2.8673
762 1 Ar 3.65295 13.6005 0.377663 1.32844 0.506745 -0.341234 6.25763 -0.940547 10.394
773 1 Ar 4.47558 14.243 16.7084 -0.321103 0.310556 0.194106 -8.65212 1.80042 -15.8307
3575 1 Ar 5.75976 15.0852 1.43561 -0.932869 -0.401423 -0.419594 32.3345 -8.25174 0.791843
740 1 Ar 5.21105 15.8284 0.94864 0.396829 0.377098 -0.627828 -8.06681 6.2708 -7.00409
3977 1 Ar 5.9242 14.6848 0.378224 -1.61541 0.533291 -0.748479 1.93712 23.384 83.632
3580 1 Ar 5.37241 13.951 1.03784 -0.462388 0.463186 1.72982 9.21923 16.5891 9.46563
733 1 Ar 6.70678 14.4712 1.20143 0.248731 1.91773 -0.0225177 3.20809 16.7026 -0.0721327
694 1 Ar 6.37479 13.5083 1.04621 -0.704973 -1.41324 -0.504514 2.39383 0.157724 -2.20478
747 1 Ar 9.76194 13.7087 1.55682 0.799783 -0.171804 1.03792 0.938482 -11.7 -13.2717
337 1 Ar 8.22847 14.6096 1.38359 -0.460473 -0.167632 -0.707646 1.1687 -3.24362 6.57884
3940 1 Ar 7.74604 13.5636 0.960297 -1.0784 0.306292 -1.0829 -26.215 11.9153 -16.3652
342 1 Ar 9.72523 14.6137 0.812602 0.539512 -0.38207 0.853233 0.65286 -2.19011 7.55151
788 1 Ar 10.13 15.4671 1.41923 -0.127363 -1.35171 0.283837 -1.39582 4.09832 -1.15515
3951 1 Ar 11.2816 15.2809 1.37189 0.0840796 0.131993 1.17972 -28.4997 22.0922 10.0659
345 1 Ar 11.8422 15.7839 2.12649 0.244173 -0.146273 -0.163193 -0.852127 0.988326 13.6953
350 1 Ar 11.6027 13.9704 0.163214 -0.0179461 0.36606 -0.443086 -10.8276 11.2708 -9.2381
790 1 Ar 13.1407 14.2119 1.40446 0.773393 -0.877195 -0.780098 -7.16515 3.03806 12.427
387 1 Ar 12.3451 13.9071 0.835054 -0.618639 -0.53288 -0.871209 5.89099 -15.2982 8.9662
355 1 Ar 12.0781 14.5626 2.47903 0.0507848 -0.669316 0.320951 34.7873 13.1432 26.6623
3633 1 Ar 12.4071 15.1004 1.52098 0.319588 -0.477272 1.23941 18.2069 9.25646 -6.442
681 1 Ar 14.6041 14.83 1.66094 -1.09118 0.877582 -0.370407 -6.54345 -21.6132 6.47827
282 1 Ar 0.0036138 14.6784 0.857899 -0.0724585 -1.13685 -0.765694 0.189274 -7.59447 -13.5136
398 1 Ar 0.00501329 15.1344 16.5892 -0.249361 -1.67635 0.27913 -4.42556 6.45177 17.3081
357 1 Ar 15.7175 14.5651 1.00959 0.272106 -0.182777 2.26683 -2.15276 -14.9415 8.56925
758 1 Ar -0.0122011 14.52 1.88658 -1.05945 0.598227 -0.868616 7.61579 -14.83 -11.247