ITEM: TIMESTEP
6900
ITEM: NUMBER OF ATOMS
4000
ITEM: BOX BOUNDS pp pp pp
0.0000000000000000e+00 1.6795961913825074e+01
0.0000000000000000e+00 1.6795961913825074e+01
0.0000000000000000e+00 1.6795961913825074e+01
ITEM: ATOMS id type element x y z vx vy vz fx fy fz
434 1 Ar 16.6771 1.4461 0.773574 -0.494131 -0.640181 -0.0517488 3.5144 -8.65351 -16.897
446 1 Ar 1.22016 0.854671 0.923781 -0.552459 1.52325 1.07465 0.3407 -0.107914 4.58623
3966 1 Ar 0.311008 0.275187 0.651239 0.0193429 -0.933866 -0.295071 -2.2633 1.80064 -4.08609
761 1 Ar 3.41394 0.512776 0.744765 0.485006 0.745423 -0.701795 -18.3008 -1.82294 -4.96003
91 1 Ar 2.31713 0.653475 0.450863 0.614952 0.0162125 -0.753167 -6.86068 2.2532 -1.29961
487 1 Ar 2.80115 1.74106 1.49649 1.56894 -0.514936 1.68133 16.2407 -3.09776 -13.2322
12 1 Ar 2.6006 0.697847 1.58799 -0.686963 0.361811 -0.467263 25.8524 5.06917 -15.2761
16 1 Ar 4.6163 16.7253 16.7701 -0.256293 -1.94715 -0.013574 12.8834 13.9107 20.9071
93 1 Ar 4.13599 16.6836 1.00183 0.536451 0.0929701 0.0522861 11.4338 -17.0389 5.21597
1170 1 Ar 4.39438 0.923246 0.420091 0.125172 -1.08858 -0.766471 -14.9953 8.79059 -9.92178
457 1 Ar 4.88584 0.6185 1.22523 0.338678 1.74397 -0.94536 -3.22794 -3.67614 15.0264
14 1 Ar 6.09169 16.3216 1.61488 0.41582 -2.05317 0.237921 1.99231 7.34786 1.2579
460 1 Ar 6.66718 0.201707 0.827993 0.497934 -1.52431 -0.113823 -53.563 -22.3647 -40.5418
375 1 Ar 4.70653 1.7933 1.37242 -0.36798 0.848041 0.57543 1.20431 1.99385 -4.4497
64 1 Ar 7.53867 1.45468 0.699442 -0.491396 1.18355 1.50146 -0.750267 3.66039 -4.32922
456 1 Ar 7.29737 0.684396 16.61 -0.208682 -0.348303 -0.0494074 -5.68685 0.245767 6.92609
780 1 Ar 8.10853 0.57444 0.946268 0.945949 1.17557 -0.275817 4.30053 2.12283 -5.52718
3619 1 Ar 6.57366 16.5969 16.7343 -0.257618 0.579767 -0.824412 -0.472418 -7.2135 -26.3941
57 1 Ar 8.53696 1.4451 16.4351 -0.910923 -0.340327 0.268166 -39.957 -17.2647 34.4426
24 1 Ar 7.03332 1.6504 1.65142 -0.150362 0.0410833 0.197873 -4.44926 19.0469 4.76448
384 1 Ar 9.27233 0.506244 0.575024 0.249514 -0.468115 0.141754 -4.66866 -0.061872 -5.75392
63 1 Ar 9.99432 0.43351 1.38595 0.0134825 1.07721 -0.288398 18.2044 -16.5698 8.57595
505 1 Ar 10.3984 0.956909 0.53567 -0.145463 0.605062 0.40002 33.872 -24.1927 17.4204
3627 1 Ar 9.85989 1.47424 16.7154 -1.3302 1.4755 -0.23103 -44.4542 -0.647553 -40.7705
3625 1 Ar 11.3029 0.414162 0.853255 -0.161466 -1.18213 0.55227 -2.17503 -3.42016 2.21602
3991 1 Ar 12.2082 0.777694 15.9804 0.169814 -1.9302 1.01459 -2.33307 -0.815871 9.9439
473 1 Ar 14.0327 1.21927 0.913312 -0.21918 -0.100784 1.13011 -23.9552 -19.4667 -18.6338
34 1 Ar 13.1059 0.494889 0.75305 0.558277 0.60493 0.0423943 5.52377 -13.925 1.61424
469 1 Ar 12.1659 0.851516 0.390206 -0.585576 0.300073 -0.795891 -3.1421 4.75736 -3.81521
79 1 Ar 15.0658 0.732898 0.943368 1.16658 -0.642207 0.802756 2.53328 -0.350639 -7.22486
35 1 Ar 13.8089 0.794386 2.01374 -1.44978 -0.0137154 -0.561832 10.354 9.4533 -3.53209
800 1 Ar 13.0796 1.35275 1.37707 -0.209653 -0.144634 1.63015 -17.1136 -3.22696 -7.22188
437 1 Ar 15.7521 1.63769 1.44193 0.610352 -0.332211 -0.300014 25.5069 -23.9204 2.2606
438 1 Ar 16.1089 0.598943 0.818328 0.242303 0.699431 -0.451952 -10.3007 -8.45458 2.35157
764 1 Ar 15.642 16.5625 1.44386 0.829848 -0.214814 1.19177 -2.02352 10.8876 2.00601
442 1 Ar 1.37724 2.6481 0.781746 -0.0453161 0.806702 -0.344521 6.68233 15.4198 9.64663
481 1 Ar 0.845124 1.83854 0.491076 -0.21234 -0.92525 -0.426801 -9.69452 -14.4084 -9.74877
402 1 Ar 0.0113814 2.47145 0.883692 -0.806179 -0.104605 -0.139109 16.1509 1.25804 0.636867
84 1 Ar 0.159795 2.85353 16.6192 -0.00471538 0.12929 0.0814363 2.22987 1.0403 -0.184277
523 1 Ar 0.733302 3.62994 0.557214 -0.0566174 0.318254 0.530838 11.1655 -28.9949 -18.8186
46 1 Ar 1.95955 1.66333 0.754904 -0.678515 -0.379841 0.186053 -10.4141 -27.9268 16.9236
482 1 Ar 3.01378 2.96783 1.32889 -0.718111 -0.198064 1.14713 3.26177 4.72517 7.11039
489 1 Ar 3.04533 1.40686 0.430285 0.364195 -0.145138 -0.549368 -1.19228 21.7563 -4.98635
410 1 Ar 3.75451 0.3683 16.4132 -0.455236 -0.891106 -0.361513 -17.3107 12.8941 38.7703
413 1 Ar 4.59087 2.04795 0.298837 0.781259 -0.928867 0.00824001 -12.4745 -6.00572 -10.6293
529 1 Ar 5.29565 2.62878 0.771081 1.15616 0.633756 -2.10129 14.0646 -8.59228 6.86198
454 1 Ar 5.88636 1.84649 1.44538 -0.384034 0.379213 -1.47865 -8.89525 7.36938 12.3648
500 1 Ar 5.45297 1.41401 0.539059 0.244662 -0.470956 -0.980513 -13.4396 -3.50763 2.61744
3657 1 Ar 6.84131 4.07515 0.658131 1.20945 -0.0426827 1.86484 -6.15535 -8.82343 -23.8781
3659 1 Ar 6.26404 2.15769 0.0860613 -0.74112 0.308701 0.69977 -2.44494 -5.76422 -0.970765
493 1 Ar 7.57465 2.60541 0.790216 0.745508 0.97479 0.496878 14.9987 4.72935 4.62633
894 1 Ar 6.58167 2.53688 0.960761 -0.685038 -1.38271 0.587995 -11.3397 8.37238 22.3726
379 1 Ar 8.70597 1.48946 0.826033 0.616278 -2.32582 -0.165762 -6.09457 1.20166 -5.54458
54 1 Ar 9.02113 2.93448 2.30976 -0.416595 -0.127453 -0.108279 15.675 -4.92494 33.5795
58 1 Ar 8.97841 1.37854 2.22558 0.632607 -0.723289 -0.143951 -1.37183 2.14751 -6.55771
25 1 Ar 10.5052 2.02536 0.412066 -1.54537 1.08152 0.805546 9.20262 -3.40223 14.1961
68 1 Ar 9.42334 3.28494 0.749135 -0.123816 -0.463855 0.626882 6.87261 5.14194 -6.76964
467 1 Ar 10.1266 2.76275 1.32343 -0.228716 0.530052 0.179794 10.7772 -16.7363 -11.4442
862 1 Ar 9.17616 2.24579 1.50115 -0.595138 0.311357 0.851064 -0.814191 -0.918854 0.376995
108 1 Ar 11.2212 3.11367 1.80343 -0.623604 0.83712 0.701239 -4.1697 3.19325 9.81625
466 1 Ar 11.8958 1.89823 1.68209 -0.823366 -0.588009 -1.33545 -14.1179 12.3041 -7.52826
912 1 Ar 11.3989 1.59466 0.742366 -0.572364 1.85972 2.33012 14.3363 -13.0082 -6.75219
32 1 Ar 11.3081 2.65718 0.858715 0.173176 2.08912 -1.53642 15.6943 -6.6659 6.00917
31 1 Ar 12.2187 1.8987 16.6436 0.460815 0.526085 0.0258485 -13.1999 3.43224 -6.60164
29 1 Ar 12.472 2.43524 0.75999 1.14213 -0.788323 -0.0794033 2.41052 -5.35882 7.73807
513 1 Ar 13.2694 3.03119 1.31649 -2.32915 -0.0155506 1.09884 -2.53434 -3.8979 -0.506823
71 1 Ar 13.0697 1.40134 0.178875 1.06893 -0.836062 -1.23511 14.2663 12.2343 25.88
3714 1 Ar 13.2039 3.76084 0.38091 0.382628 0.837121 -0.89266 14.3985 -10.0569 -8.57857
36 1 Ar 14.7868 1.69003 1.31993 -0.889661 -1.06896 -0.646597 -19.5153 14.0586 3.28588
441 1 Ar 16.733 1.78566 1.72694 0.694858 -0.321281 0.221496 11.5309 6.59132 15.4919
3674 1 Ar 14.7955 2.40024 0.5564 -1.09134 -0.304957 0.57492 0.0104888 10.868 -13.3348
525 1 Ar 1.28469 4.34134 16.6595 0.464625 -0.786718 -0.557671 1.23663 -30.0518 3.00724
124 1 Ar 0.363903 4.58498 0.639008 1.94614 0.895682 0.566606 32.6347 -0.2502 22.4055
524 1 Ar 0.946095 5.32796 1.37113 1.07563 1.08134 1.66744 3.28633 -2.89909 -4.7687
486 1 Ar 2.20147 3.45211 0.889761 0.157175 0.251352 1.03096 -15.6815 -7.78761 -13.2349
565 1 Ar 2.6185 3.72377 16.439 1.40195 0.0264442 0.143432 13.7087 -9.66945 12.7993
48 1 Ar 2.35304 2.45962 0.341537 -0.0137833 -0.0743949 -0.038999 21.7926 30.2765 -9.78457
893 1 Ar 3.19128 4.73469 1.20121 0.704916 -0.0191512 0.769926 21.7171 39.8121 14.8112
92 1 Ar 3.09687 3.98437 0.596944 0.971333 1.00734 0.803095 7.193 -44.2725 -15.5563
3689 1 Ar 4.69109 3.15374 16.4981 -0.149713 0.797015 -1.17475 -4.24862 -6.44097 5.38858
133 1 Ar 4.70773 3.51467 1.75998 0.305705 1.12739 -0.674253 0.369408 4.76386 -4.70457
129 1 Ar 4.23477 4.32261 0.856559 2.1564 0.46838 -0.530673 -2.5839 6.11602 -0.876532
3692 1 Ar 5.72138 3.09524 1.67229 0.0854501 0.137166 -0.295875 18.7377 13.5089 -14.0655
3731 1 Ar 5.04592 3.61932 0.630241 1.84998 0.359564 0.942988 11.3744 18.9893 0.936172
90 1 Ar 7.03351 4.71137 1.39906 0.868132 1.10044 1.32829 -7.62945 14.4706 13.4364
136 1 Ar 6.82616 3.56514 1.60011 1.374 -2.14602 -1.31375 -6.59417 -12.8251 0.040825
534 1 Ar 7.24199 4.71767 16.5297 0.675082 0.245214 -0.448476 -4.07339 8.1456 -5.73242
61 1 Ar 8.65134 3.16921 1.43179 0.561036 0.763341 -0.710466 -27.8033 4.00933 -25.778
494 1 Ar 8.94797 5.09388 1.31968 -0.839531 -1.74183 0.743966 -3.42326 -6.99902 -7.64733
898 1 Ar 7.80593 3.80926 1.2357 -1.50813 0.0631611 0.360821 -9.29354 4.61213 14.2943
98 1 Ar 7.03309 2.94261 16.6066 0.789716 -0.673174 0.148705 -7.33699 -6.54655 18.7691
102 1 Ar 10.0854 5.26352 16.663 -0.993805 -0.206825 -0.342761 0.591235 -4.79806 1.17887
3704 1 Ar 10.2192 4.08337 0.0818352 -0.441539 -1.17521 0.795109 20.1377 -14.5663 -17.7108
112 1 Ar 10.3951 3.82087 1.20637 -0.484662 0.440014 0.271287 -0.481337 -5.65818 -2.06735
76 1 Ar 11.3034 3.94306 0.0784143 0.107167 -0.260594 1.79008 3.01549 -0.550711 4.70359
75 1 Ar 12.0686 3.42612 1.14943 -0.191921 0.383098 -0.768024 -9.9857 -13.1804 -3.41118
3747 1 Ar 12.3464 4.07041 16.2889 1.3603 -0.318526 -0.228607 6.20392 4.43748 -9.86952
73 1 Ar 12.2999 4.22184 0.547812 0.323344 -0.506075 -0.491866 -15.4772 22.797 -10.9185
546 1 Ar 11.693 4.45774 1.58058 -1.17185 -0.229016 -1.12116 6.35111 -9.68895 2.05628
146 1 Ar 13.4783 3.68028 16.0611 0.629732 0.369429 -0.290962 6.06795 1.6304 9.49689
553 1 Ar 14.3113 2.68177 1.41311 -1.66516 -0.16223 0.184079 -1.15722 7.91074 1.74874
114 1 Ar 13.7177 3.78037 1.95283 1.25415 -0.430081 0.865095 -49.661 29.6062 -5.43964
109 1 Ar 13.6999 2.29774 0.668303 0.369045 -0.300909 -0.935936 3.87705 -16.1854 5.35465
153 1 Ar 14.2886 3.4599 0.632582 0.636907 0.803611 -0.0104623 -14.9599 1.00881 3.40683
120 1 Ar 16.3213 3.34411 0.651084 -2.56168 -0.312249 -0.0240797 2.93716 20.615 -3.43811
3683 1 Ar 15.8314 2.63772 1.2529 0.391495 0.344426 2.1948 -5.46788 8.368 -2.73914
81 1 Ar 15.1154 4.53132 0.666332 0.385915 -0.332426 -0.761938 3.85948 -2.62065 -2.82297
163 1 Ar 1.40921 4.28921 1.06745 -0.345081 -0.759158 0.433988 -10.4604 7.51499 -7.69048
200 1 Ar 16.6041 5.63584 1.19295 0.532038 -0.168473 -1.39584 -4.88221 -0.976805 -10.4083
3725 1 Ar 1.5058 5.28659 0.124076 -0.138903 0.109644 0.824195 5.43412 2.1187 7.36971
522 1 Ar 2.28944 4.61537 0.519926 1.34841 -1.63748 0.057184 -11.6479 -8.13703 -12.0524
157 1 Ar 2.5913 5.55725 0.133097 -0.555758 0.505254 0.877472 -16.2381 35.2388 15.2378
173 1 Ar 2.30708 5.23698 1.33729 0.908448 0.885069 1.30716 -9.56747 30.0644 6.06374
3726 1 Ar 1.42122 6.00568 16.1284 1.28413 0.765382 -1.26215 -15.6721 -5.16477 -13.5582
3775 1 Ar 4.80953 4.5613 16.7459 -0.47132 1.31109 0.262623 -4.68783 8.4661 1.6955
132 1 Ar 3.6837 4.40217 16.6361 -0.631884 -0.350631 -1.29454 3.87394 -14.5978 -11.8875
3772 1 Ar 3.18506 6.12312 1.1504 -0.222036 0.980358 0.799469 0.313558 -30.6532 -7.04464
3732 1 Ar 3.57273 5.32813 0.230219 1.56382 0.453231 0.828761 16.4486 0.268706 34.4725
130 1 Ar 5.7415 5.28233 1.09919 0.0603292 -0.397056 -0.397261 9.8422 -7.81382 6.52536
174 1 Ar 4.6395 5.34438 0.690329 -0.281686 0.110129 -0.6595 -7.32511 -11.0927 22.6848
3375 1 Ar 6.16639 6.30336 0.779481 -0.169223 0.758628 -2.05499 1.44621 -1.81638 -0.173074
573 1 Ar 6.82124 5.46858 0.33127 -0.641957 1.78904 -0.856119 -20.9874 1.00079 10.0996
974 1 Ar 7.99861 4.94317 1.69473 1.78038 -0.543666 0.47939 -5.96679 -1.80671 6.63314
977 1 Ar 8.43979 6.2993 1.92687 -0.330961 0.748986 0.115908 -21.9772 9.22637 42.3433
539 1 Ar 9.82346 5.52833 0.894638 -1.85001 -0.900094 0.794695 6.49449 17.4773 2.88027
544 1 Ar 9.50366 6.15898 0.0571801 0.85081 -0.779682 1.82946 12.3119 2.43512 17.0815
138 1 Ar 11.2613 5.30101 16.6085 0.594661 -0.407357 0.412248 -9.53314 0.769048 4.28912
145 1 Ar 11.6989 6.21816 0.214185 -1.18691 1.22945 0.551564 20.6797 16.7609 -27.3608
506 1 Ar 10.6444 4.81068 0.947021 0.367758 -0.657678 0.480243 2.80064 -0.581444 -3.32541
148 1 Ar 10.9714 5.78558 0.696066 -0.368174 0.17349 -0.357292 -26.4987 -10.9412 8.63471
189 1 Ar 11.8957 5.24443 0.867769 -0.430266 -1.03372 -0.43868 -4.47738 2.56896 -12.8022
950 1 Ar 12.5452 7.30388 0.562676 0.105611 -0.182015 -0.210411 2.98845 -7.55681 -16.0818
151 1 Ar 14.09 4.47952 0.221765 0.588804 1.30427 -1.68399 27.0172 -15.4515 -11.717
559 1 Ar 14.6406 5.53086 0.77467 0.533067 1.02671 1.07345 -21.6586 -20.2751 -29.5891
117 1 Ar 14.552 4.33278 1.57479 -0.94727 -0.326682 -0.0430997 5.64163 3.00367 3.44764
560 1 Ar 14.8607 5.83906 1.6771 0.79084 -0.467923 -1.33006 -13.5037 24.291 28.762
155 1 Ar 13.2144 4.75121 16.6063 -0.701719 1.34146 1.97895 -18.3356 -18.1903 -17.0585
159 1 Ar 15.3637 5.04111 16.4918 0.885957 0.871627 0.792767 -10.1587 9.1927 -0.283887
561 1 Ar 16.3249 4.95805 0.308019 -0.293096 0.422806 0.653011 -32.9951 5.37742 -10.4182
121 1 Ar 15.5337 5.11578 1.66152 -0.58035 -1.18141 0.444521 13.7744 -8.1935 0.182002
602 1 Ar 1.02889 7.5556 16.6415 -0.818568 0.55488 -0.215179 25.167 -0.796796 1.6521
609 1 Ar 1.9552 7.67956 1.48788 0.363533 0.157383 -0.917047 -0.545829 1.84819 2.60301
922 1 Ar 0.75672 7.60775 1.06615 0.210551 1.11359 0.6555 3.42793 -6.84371 6.66981
564 1 Ar 0.820738 6.40033 1.00757 -0.517983 1.36419 1.14458 19.5484 -10 -20.8292
126 1 Ar 1.70092 6.2915 0.260097 -1.46973 0.166055 -0.212494 7.32731 19.7815 19.6791
167 1 Ar 1.37143 8.37173 0.554009 0.366487 -0.0461532 1.61787 -3.89599 3.58657 8.98369
1010 1 Ar 2.32767 7.35167 0.477733 -0.353498 -0.169343 -1.06329 -9.0718 -15.4716 -1.00098
566 1 Ar 3.4673 6.44574 0.139666 0.202627 0.258855 -0.514615 4.90833 -15.6839 0.905272
620 1 Ar 4.39024 5.91081 16.666 1.1658 0.268346 -1.04817 -13.6974 7.42794 -22.0558
3016 1 Ar 4.9966 7.9508 0.40652 -0.722527 0.0175414 1.42318 -12.5362 27.3037 0.739259
171 1 Ar 4.3361 7.12015 16.4448 -1.82067 0.607025 0.489164 -16.3864 0.322892 -9.81228
3817 1 Ar 5.18136 6.10861 1.28856 -0.386509 -1.25909 1.32095 -32.9093 11.9659 -18.9556
3774 1 Ar 5.30961 7.11663 16.7892 -0.223818 -0.865465 -0.140863 -7.70451 -33.8426 -1.04307
653 1 Ar 4.51578 6.66545 0.596461 0.0400423 1.5592 0.364151 -1.21916 2.54463 13.9061
3779 1 Ar 6.30737 7.7591 0.755444 -0.233769 1.6954 0.071674 -2.21337 3.54105 -5.19503
3780 1 Ar 7.19495 6.6732 0.484639 -0.839574 -1.4099 -0.702391 0.68009 -1.01401 10.2529
141 1 Ar 8.46648 7.90739 0.890034 1.38449 0.442347 -0.392435 0.401623 3.05527 2.07627
3740 1 Ar 7.7534 5.74584 0.023843 0.166181 -0.182152 -1.23556 16.4581 4.81684 -6.07188
585 1 Ar 9.40659 6.37265 1.55764 0.40817 0.471672 0.759909 20.3932 2.84319 -1.50312
219 1 Ar 8.56473 6.04577 1.00662 -1.09653 -0.409911 -0.109537 -1.93161 -9.98805 -55.0298
3785 1 Ar 8.88333 7.32097 1.72415 1.87995 1.66612 0.709763 1.27954 2.8489 1.27
545 1 Ar 10.5707 6.11809 1.56853 -1.05031 1.65918 0.653931 -8.53763 0.818489 24.7865
3836 1 Ar 10.4134 6.73306 0.723595 -0.106255 0.543839 -1.1273 -25.0166 -20.1409 21.6574
183 1 Ar 9.34883 7.06829 0.646695 0.129919 0.0794123 0.0696983 -2.55592 -4.90893 7.75799
192 1 Ar 11.6189 6.51886 1.39095 -0.20027 -0.497288 -1.23783 -14.229 -12.028 -5.23903
229 1 Ar 11.9102 8.16565 0.37427 -1.01985 0.440534 1.02614 -9.0063 -30.278 -11.5715
3757 1 Ar 13.3056 8.27879 16.0655 -0.22586 0.0995735 -0.438948 -10.7238 5.00897 3.2724
187 1 Ar 11.2433 7.1717 0.418693 -1.40342 0.551894 1.40616 39.3058 -0.568061 -16.8089
190 1 Ar 13.2491 5.62405 0.285795 -0.809729 0.409842 0.518458 1.84102 25.0955 16.092
595 1 Ar 13.3632 7.43601 16.7278 0.432548 -0.489082 1.40451 20.2354 -11.4051 -6.0225
193 1 Ar 13.6205 7.20224 0.961839 -2.03553 -0.603144 2.13624 7.05946 5.43696 -15.1174
554 1 Ar 15.0784 6.31643 16.478 0.893273 -0.557527 -0.693117 3.65648 -8.71037 4.25844
960 1 Ar 14.5581 6.57595 0.970238 0.2349 -1.42194 0.603013 6.39913 6.71623 8.23897
149 1 Ar 14.1964 5.47723 16.5906 1.44024 -0.21764 0.182679 0.629124 23.8205 14.1459
518 1 Ar 15.6369 5.76231 0.633904 0.275471 0.0520647 0.793436 4.70888 5.0793 7.40711
158 1 Ar 16.1444 7.45524 1.06119 1.91628 -0.0234373 1.29502 3.33472 13.2663 -0.637216
3790 1 Ar 15.6601 7.08173 0.230703 2.17888 -0.894119 0.915928 -2.7607 -2.49799 -6.51984
597 1 Ar 15.6635 6.62039 1.48975 0.0162025 -1.15094 -0.0392308 -6.87201 -7.01104 -7.90225
201 1 Ar 0.324469 8.6083 1.02363 -0.0627056 -1.22636 0.628521 11.5701 2.60973 -4.35971
568 1 Ar 16.7513 7.86755 1.84343 -0.728029 0.877455 0.0319863 1.48436 0.237896 -0.469534
207 1 Ar 1.95759 9.41447 1.15062 0.160908 0.465249 0.185253 6.24374 -2.79869 -7.22787
209 1 Ar 1.92393 8.18359 16.4883 0.887745 -0.855459 1.77737 2.21778 -11.3483 -9.5494
170 1 Ar 1.98142 7.15345 16.2396 0.905035 0.0381469 -0.0597473 -2.61431 -7.65998 -1.84271
243 1 Ar 3.394 7.41834 0.475623 0.133722 -1.94936 0.425243 10.3368 16.7685 -9.58754
216 1 Ar 3.56159 7.65251 15.6964 0.20442 -1.74327 -0.880887 2.09902 6.86529 -1.07141
651 1 Ar 4.94655 7.85721 15.8696 0.0626192 -1.02966 0.951497 -8.2667 8.91104 24.5495
297 1 Ar 5.68962 8.98471 0.493962 -0.167806 0.150612 -0.281785 4.17962 -12.8887 15.8496
3451 1 Ar 5.04282 8.96803 16.4342 -0.172829 -0.221542 -0.860673 -3.91598 -0.62939 -6.43219
3819 1 Ar 6.29647 8.3977 16.3747 -1.72493 -0.66904 0.289528 -6.50687 5.48704 8.27893
218 1 Ar 6.69868 9.30009 0.401774 0.788513 -0.0347335 1.47661 24.1977 -21.3936 -18.315
224 1 Ar 7.909 8.69177 0.22028 -1.33925 -0.763396 1.27239 4.13269 -1.71766 -7.72725
184 1 Ar 8.44063 8.97221 1.16533 0.174537 0.518545 1.84222 53.5611 -9.62936 9.71484
223 1 Ar 6.98652 9.11208 15.9236 -0.0102387 -0.809379 0.672676 10.8916 1.3322 4.7857
586 1 Ar 9.49511 8.19018 1.13524 -0.956323 0.0720693 0.472521 9.761 -2.94186 13.5857
625 1 Ar 10.8456 9.10083 1.14057 0.338609 -0.304727 0.185674 5.06881 -1.19997 8.78466
3787 1 Ar 10.0351 8.92407 0.507788 -0.140431 0.65563 0.538069 -26.9693 -22.5211 21.1944
3796 1 Ar 11.4406 9.99991 1.06782 1.18985 0.0356512 -0.112814 -12.1879 -5.5182 -6.76569
669 1 Ar 11.3993 9.05108 0.269283 0.645027 -0.681588 0.57672 -0.158855 6.35339 -5.62558
186 1 Ar 10.5985 7.90509 0.650672 -0.587449 0.0504403 -0.0536523 -15.0992 20.8692 9.88554
195 1 Ar 12.5111 9.22817 0.175398 -0.371804 -1.0364 0.599334 6.71819 -26.9462 -5.05511
197 1 Ar 13.5653 9.19855 0.542729 0.508108 0.0144249 0.659317 1.17873 -13.0195 -6.28264
636 1 Ar 12.79 9.0086 1.67006 -0.042734 0.643664 -0.266541 64.8412 33.2076 46.8647
3831 1 Ar 14.5417 9.01096 0.0836784 -0.561195 -0.40593 0.706573 19.5935 -1.39077 7.46375
3753 1 Ar 14.3245 8.00356 16.2016 1.85962 0.439251 -1.57216 -25.5337 11.1638 5.70838
237 1 Ar 13.9163 8.71521 1.37195 -0.399544 -0.777827 -0.919831 -10.1873 2.48119 7.84587
3798 1 Ar 14.4149 7.75127 1.44818 0.107697 0.775845 1.22241 27.5534 -31.436 -20.9783
603 1 Ar 15.4829 8.06176 1.67063 -0.158996 0.653661 -0.364946 -16.3034 -11.1279 3.19674
3439 1 Ar 14.8068 8.45463 0.857506 -0.385385 -0.800121 0.411295 42.2019 10.6861 18.421
3808 1 Ar 16.2402 8.37009 0.439267 0.957599 0.676366 -0.0952861 -0.540441 -7.52925 -19.405
279 1 Ar 16.6265 9.72836 0.663244 -0.238836 -1.00187 0.366101 -0.663435 -2.47523 -0.437026
717 1 Ar 0.895271 9.3605 0.303556 -0.532467 0.361509 1.43782 -3.90231 -6.8639 -9.63881
641 1 Ar 0.559917 8.98804 2.04545 0.295258 1.21356 0.544819 1.70835 15.7869 -14.4908
608 1 Ar 0.956211 9.64655 1.33982 1.03537 -1.25863 0.873075 -11.3483 2.22693 7.7997
612 1 Ar 2.52264 8.35756 0.582111 1.02569 -0.385381 1.20366 5.45367 14.677 4.58631
647 1 Ar 2.1032 10.2677 16.6617 1.39599 -0.0125614 -0.00922802 0.843987 -19.9535 -4.25969
649 1 Ar 3.67367 9.35312 0.461041 0.53122 0.428096 -0.528911 -5.22132 50.3735 -30.955
3816 1 Ar 4.24176 9.84006 15.9468 0.659966 -0.394122 -0.204954 23.9852 2.2813 -4.80502
3856 1 Ar 3.27451 10.4332 0.108059 0.513683 -0.177035 -0.99787 7.38192 4.89184 -1.76749
291 1 Ar 3.30955 9.6125 16.2263 -0.101659 -0.39262 0.435137 -16.524 -20.7013 5.42472
689 1 Ar 4.47902 10.5977 0.458218 -0.572897 -1.30177 -0.254944 -8.62484 0.667264 -0.276796
217 1 Ar 5.39152 10.0392 0.608828 -0.0742944 -1.10231 0.136152 -13.185 -23.699 2.99373
655 1 Ar 6.16886 10.5589 0.20553 1.50384 -0.106242 -1.39421 8.01571 -15.4949 -21.0117
253 1 Ar 7.9995 9.97277 2.0535 -0.988444 0.697627 -0.877793 32.8241 -25.0389 2.84945
3815 1 Ar 5.1252 9.47526 15.2848 0.0898313 1.04632 -0.766729 0.362251 1.62918 5.36812
258 1 Ar 7.09725 10.2643 0.708068 -0.48368 -0.987089 1.43686 10.7672 14.4979 -3.48076
665 1 Ar 8.12221 10.0171 0.853003 2.17907 1.36741 0.222485 6.30395 2.677 -2.67362
668 1 Ar 8.7685 10.686 1.33296 -0.94877 -0.037119 0.149943 -0.381222 0.834554 6.88343
222 1 Ar 9.5058 9.86035 1.14086 -0.119287 -0.0183405 -0.132923 4.46356 2.164 -9.22853
626 1 Ar 10.0909 10.9019 0.942939 -0.47181 0.94968 -0.641727 4.53458 -18.4548 -10.7401
672 1 Ar 10.8586 10.4755 0.27525 -0.389945 -0.871077 0.932781 -1.17116 -12.9743 -11.2841
996 1 Ar 12.2251 10.1656 0.311359 1.29482 0.0551639 0.32022 -10.6473 30.9377 -5.36864
227 1 Ar 11.4958 9.72751 16.2601 0.00512194 0.0813322 0.0884904 1.38412 10.3102 1.17946
267 1 Ar 10.6355 10.6358 16.0089 -1.04749 -0.694967 -0.395945 14.5031 13.9727 4.22766
194 1 Ar 14.431 10.0453 0.239243 -0.162973 0.0626017 -0.518681 -20.6438 2.43489 -15.0164
273 1 Ar 13.3369 10.1559 0.374122 -0.426695 -1.03109 -0.770583 -20.4977 -10.7501 -8.50826
353 1 Ar 13.8671 9.7726 1.75749 0.116561 -1.82693 0.822256 -7.29618 -7.99724 -7.23526
3835 1 Ar 12.8163 10.9385 16.3127 -0.0273992 0.391726 -0.143925 -0.495885 -1.35121 7.26034
311 1 Ar 14.0688 11.5049 1.67402 0.270793 0.636919 0.582883 4.7453 -0.989646 11.7021
3435 1 Ar 14.041 10.7005 16.1764 0.318631 1.11366 0.315395 3.18418 -1.84569 5.90727
199 1 Ar 16.548 10.7623 1.15634 0.220712 -1.1168 1.14035 4.05884 -16.7413 -12.3113
3795 1 Ar 15.3495 10.409 0.45637 1.24513 0.341428 -1.38808 2.69693 10.9003 29.0946
277 1 Ar 15.5844 9.25591 0.405545 -0.118877 -0.794179 -0.62159 -4.18336 1.26403 4.85539
720 1 Ar 14.7041 9.57535 1.14217 0.933247 -0.582585 0.593786 8.7775 -11.6822 2.52152
212 1 Ar 1.03736 11.0952 0.921232 0.856725 1.17701 -0.018366 -2.56377 21.0117 7.75581
687 1 Ar 0.0726871 11.3857 1.89591 -0.41946 -0.972679 -0.604034 -21.2063 -20.0255 20.5043
685 1 Ar 1.982 12.2201 1.63363 0.557803 -0.203997 0.414508 -0.579044 0.609939 6.60754
241 1 Ar 0.511842 11.9826 1.05019 0.84706 -0.514708 0.201022 -3.6018 1.92312 7.25797
245 1 Ar 2.79657 12.0011 0.630646 0.0988793 1.35054 -2.11561 9.83181 11.121 -6.04506
696 1 Ar 3.7259 10.9573 16.0719 -0.624449 -0.206683 -0.0838586 6.81403 5.62563 7.01222
249 1 Ar 3.99974 11.5785 0.21487 -1.2393 0.672015 -1.53366 15.3337 -13.106 21.2516
3893 1 Ar 3.42226 12.0127 16.3292 -0.105265 0.641956 0.157701 -14.1864 14.0002 -18.5596
1089 1 Ar 5.11438 12.0238 0.68245 1.14859 1.40628 1.22126 -4.59366 23.2006 -1.34531
250 1 Ar 5.32158 11.4025 16.5682 -0.20197 -0.920509 -0.11252 -7.67576 -16.9335 -3.11363
3895 1 Ar 5.41032 11.0592 0.74168 -0.703896 0.797267 0.11991 8.29965 0.164974 19.9339
3860 1 Ar 5.30838 10.1904 16.0271 1.16517 -0.308689 -2.18975 2.45811 6.92977 15.8957
294 1 Ar 6.61139 11.4141 0.481695 -0.955748 0.536682 -0.550859 9.78452 17.4694 -4.21842
257 1 Ar 7.46251 12.1243 0.243567 -0.972761 -1.2219 0.440797 34.2867 -7.45911 9.38906
293 1 Ar 7.33058 10.8499 16.5737 -1.75419 -1.14266 -0.0324712 8.88387 11.6083 21.5063
3904 1 Ar 7.67565 10.8504 1.66925 0.465303 0.0942182 -1.56545 5.2374 23.4172 -2.3557
3867 1 Ar 8.09082 11.5942 1.06973 0.154527 -0.926389 -0.732956 2.99213 6.63495 -21.073
232 1 Ar 9.14753 11.4767 0.679259 -0.52951 -1.16176 -0.0144393 22.8813 13.7653 21.0882
3823 1 Ar 9.77603 10.5141 16.6003 -0.595978 0.927756 0.674537 8.11534 1.4378 17.5351
300 1 Ar 8.5802 11.8 16.7275 0.480742 0.681505 -0.973859 -16.7535 1.87318 -11.4825
309 1 Ar 11.205 11.1239 1.0019 1.51653 0.907707 1.54114 2.90761 3.24103 10.3468
3866 1 Ar 11.6962 11.7542 0.21794 -0.178036 -0.0616787 -0.0418113 7.50674 4.86756 9.84115
270 1 Ar 12.5201 11.3668 0.793522 0.0313825 -0.0975199 0.124019 4.30822 -3.51924 2.27777
3949 1 Ar 13.7418 12.0632 16.7804 0.0726116 0.276891 -0.734091 11.6008 5.80327 -4.65861
351 1 Ar 12.5961 12.5233 0.880548 0.224941 0.729777 1.53916 -12.7869 -0.558934 5.78254
671 1 Ar 13.6819 11.0673 0.43627 0.878431 0.760307 0.0191633 16.5329 29.0256 -7.07606
670 1 Ar 14.2371 12.6907 1.61207 0.101553 -0.252162 0.0438554 88.6067 -25.2 -46.088
3876 1 Ar 15.0869 12.1667 0.80941 -0.0318214 0.811833 -0.439919 0.675363 -0.0884681 -0.112728
315 1 Ar 15.6555 11.2649 1.25638 0.208358 1.76643 -1.07175 -15.2371 1.99714 -2.02801
319 1 Ar 16.3398 12.1477 1.5826 -0.975454 0.632212 -0.852087 -23.2206 13.8447 -9.16696
318 1 Ar 16.2013 12.5688 0.355874 -0.243473 -0.820585 1.16634 -3.68299 -3.59316 -0.317937
275 1 Ar 15.9061 11.339 0.251803 -1.31527 -0.167756 0.598047 12.0107 -3.0371 -1.93278
692 1 Ar 2.19558 13.4738 1.89399 0.997076 -0.711164 -0.410878 4.96246 -6.65316 -7.47113
321 1 Ar 0.101531 13.0082 1.34682 0.785604 -0.0348916 -0.516394 19.3732 -10.7281 -12.7972
288 1 Ar 1.42456 12.9008 1.03265 0.461698 0.301293 -0.257061 4.25682 -4.0953 -47.7407
766 1 Ar 2.20266 13.1943 0.275607 0.172299 0.434506 0.0917273 18.1411 1.60499 7.36301
3892 1 Ar 3.00611 12.6973 1.67645 -0.324884 0.166852 0.734635 -30.6636 -0.466102 -7.74496
3925 1 Ar 2.76339 13.7867 1.0525 0.132195 -1.14908 0.428018 3.35559 -13.2077 2.73457
1090 1 Ar 3.93053 12.4102 1.03006 -0.805912 -1.39078 1.47346 7.14777 -1.35025 -20.5593
1456 1 Ar 4.66817 13.2948 0.751478 -0.707565 0.301235 -0.452694 22.7416 -22.5683 7.17325
690 1 Ar 3.86779 13.2046 1.7568 -1.46241 -0.237155 0.164502 20.1698 20.3236 4.13075
729 1 Ar 4.49313 12.5061 16.7054 -0.958458 -0.496984 0.0937531 9.73508 -9.21424 12.3513
3967 1 Ar 4.04092 13.1891 16.1164 0.135141 0.158552 -0.035882 -14.2743 15.4346 0.630142
332 1 Ar 5.65568 13.036 1.42731 -1.78212 -0.82508 -1.85859 -8.2734 16.2641 9.07996
3900 1 Ar 6.85568 13.0609 0.749966 -0.0629998 1.78129 0.862358 5.13346 8.54563 -3.66258
700 1 Ar 6.82619 13.0499 1.81899 -0.425899 -0.552444 -0.300856 0.808149 4.99164 1.05581
1094 1 Ar 5.70352 12.8609 0.27165 0.019662 1.81119 1.76568 -22.0519 24.545 -15.4468
295 1 Ar 8.75128 12.9513 0.456244 0.731914 1.71845 0.456305 -6.19558 7.53561 -18.1645
302 1 Ar 7.87543 12.7831 1.17491 -1.05542 -1.74307 0.122288 -0.715856 -0.31496 -22.3209
662 1 Ar 8.97022 12.5183 1.33909 -0.9029 -0.747693 -1.07479 -3.48972 -25.0825 -5.30708
707 1 Ar 9.88182 12.4567 0.679945 -0.657033 -0.964427 0.299872 7.26809 -2.81592 17.1799
705 1 Ar 12.2569 12.8312 1.90384 -0.803492 -1.81791 -0.166156 -23.6996 25.7523 -0.198609
305 1 Ar 8.60731 14.1913 0.707452 -1.26323 0.0661028 1.61 -3.57161 -11.8179 -0.513575
749 1 Ar 10.7198 13.1283 1.86301 -0.331142 -0.421212 1.71014 -9.44086 -14.0527 -57.7884
3512 1 Ar 10.691 12.04 1.37239 -0.861253 0.882817 0.341519 -4.69121 -2.40792 -5.10674
385 1 Ar 12.1527 12.9447 16.7905 0.677406 -0.286665 0.758106 -16.45 9.43329 -4.72898
354 1 Ar 13.1982 12.9939 0.130896 -0.320633 1.16601 -1.29187 20.6209 -23.6014 11.2166
316 1 Ar 12.9628 13.6605 2.27462 0.771697 0.40046 1.05297 -15.3887 -12.9462 5.22213
3912 1 Ar 13.8253 13.875 0.641086 -1.1643 -0.135556 -0.0705491 -14.9317 2.67913 -4.82845
3959 1 Ar 14.2204 12.8958 0.570393 0.394178 0.698376 0.00581278 4.51585 -3.78136 -5.96982
393 1 Ar 14.2084 13.8587 1.65093 -0.740018 0.655825 1.32731 11.3147 -19.8055 7.45704
39 1 Ar 14.7292 14.4131 0.664233 0.518595 -0.0446911 0.512368 -1.44972 44.8015 -8.28948
278 1 Ar 15.057 12.6858 16.5994 -0.171396 -0.00984812 -1.00911 0.590726 7.7979 2.82096
3515 1 Ar 14.1544 12.8156 15.9987 0.440246 -1.37464 1.73671 4.05427 -7.64964 1.68129
317 1 Ar 16.3866 13.6068 0.640964 -0.536925 -0.167206 0.132737 2.33088 8.33157 8.30788
3924 1 Ar 15.6787 13.6311 16.6946 0.200791 -0.21268 -0.681902 4.77915 -24.3508 14.6352
677 1 Ar 0.742004 13.8336 2.60806 -1.0765 -0.446896 2.04159 -2.27836 -0.911485 -12.975
368 1 Ar 0.658454 13.6438 0.759299 -2.42195 -0.338301 -0.491783 5.81675 7.77542 -4.39167
325 1 Ar 0.58653 15.4831 1.38457 -1.44099 0.222573 0.177294 18.9944 -3.92378 6.5192
362 1 Ar 1.36342 15.0546 0.519404 1.21019 -0.490464 0.13973 1.87242 -5.28331 2.6646
686 1 Ar 3.34971 12.947 0.311493 -0.547464 -0.0454944 -1.09769 -3.93035 0.601192 -8.14464
367 1 Ar 3.23695 14.1267 1.95959 -0.774465 -1.43304 -0.542121 -9.79579 5.20477 -6.62175
361 1 Ar 1.57348 14.0589 0.49424 0.709004 0.188515 1.60075 19.6751 -9.07239 1.71152
17 1 Ar 3.3257 15.0001 1.05416 0.212055 0.161737 -1.3495 -29.8994 -42.3611 -29.343
762 1 Ar 3.83287 13.8226 0.748277 -0.986141 1.66819 -0.0184477 -32.0363 10.9598 1.0084
773 1 Ar 4.00612 14.2974 16.4851 1.11661 -2.32905 0.435048 19.0259 -6.8113 4.98855
3575 1 Ar 6.01059 15.2813 1.43508 -0.165922 -0.0836143 0.209376 -4.91082 2.30337 18.715
740 1 Ar 5.29001 16.0525 0.695002 -1.50557 0.403686 0.315558 -1.60016 3.03821 7.70551
3977 1 Ar 6.06909 14.9269 0.493697 0.217233 0.327129 1.68595 -6.37982 -21.4256 9.52923
3580 1 Ar 5.35445 14.1967 1.13985 0.265531 1.08444 0.553376 -3.01256 -0.177016 -1.36679
733 1 Ar 6.96482 14.9462 1.04033 -0.328284 -0.729875 -1.35832 12.6084 -14.684 7.44628
694 1 Ar 6.4247 14.0909 1.3427 0.34141 0.30134 -2.11197 -5.1327 -7.65042 -3.09034
747 1 Ar 9.66651 13.327 1.26805 -0.940876 0.373237 -0.574228 10.658 9.86364 3.66796
337 1 Ar 8.15865 14.8588 1.3957 1.30192 0.940319 -0.289514 -18.8724 -58.0835 -0.308426
3940 1 Ar 7.50262 14.0283 1.01757 0.447569 -0.0361465 2.00507 -2.38611 -9.28968 -9.01911
342 1 Ar 9.62039 14.4098 0.641673 0.48398 -0.66976 -0.238609 25.0312 22.5173 42.5044
788 1 Ar 9.99545 15.233 1.25012 0.422805 1.88597 -0.209923 0.98441 -9.60266 8.53913
3951 1 Ar 11.1972 15.049 1.58849 -1.0465 -1.0369 0.706714 -25.3068 23.5984 14.2207
345 1 Ar 12.234 16.0107 2.33527 1.35395 -0.116262 1.48869 -27.5662 -14.3632 -36.1002
350 1 Ar 11.586 14.0788 16.7151 0.220381 0.836188 2.483 -3.47578 -49.2053 -3.0657
790 1 Ar 12.8946 14.3927 1.55448 -0.867787 -0.296064 -0.282175 -17.2408 -1.45448 -24.5308
387 1 Ar 12.4114 13.6026 0.929637 0.684315 1.8121 1.41953 10.6888 -1.95311 -7.13913
355 1 Ar 12.0838 14.5742 2.46387 -0.168116 0.354472 0.859631 25.8881 11.1855 -32.1095
3633 1 Ar 12.2223 15.2936 1.59633 0.250683 1.83705 -0.483159 5.6959 -10.7861 -2.80891
681 1 Ar 13.998 14.7652 1.30486 -2.23881 -0.226842 -0.185774 -1.8857 20.2175 -7.74791
282 1 Ar 0.261514 14.5802 0.971688 1.73356 0.284779 -0.232555 -5.29796 3.77478 -5.80316
398 1 Ar 0.427684 15.5651 16.1622 -0.961202 0.0351479 1.49348 -15.612 -10.0648 -2.38683
357 1 Ar 15.9317 14.5995 0.926215 -0.893552 -0.156037 -0.581378 -2.38972 -4.68169 2.24333
758 1 Ar 16.693 14.0246 1.81213 1.33775 0.497149 0.302686 4.93329 11.5538 -4.01704
722 1 Ar 15.4802 15.5448 1.19335 1.42736 0.170998 -0.650486 27.0793 -17.5162 -2.96573
798 1 Ar 0.928274 16.5747 1.36859 -1.44684 0.28018 0.336177 4.53837 4.86054 -0.63911