ITEM: TIMESTEP
700
ITEM: NUMBER OF ATOMS
4000
ITEM: BOX BOUNDS pp pp pp
0.0000000000000000e+00 1.6795961913825074e+01
0.0000000000000000e+00 1.6795961913825074e+01
0.0000000000000000e+00 1.6795961913825074e+01
ITEM: ATOMS id type element x y z vx vy vz fx fy fz
1 1 Ar 16.5531 16.7365 16.2872 -0.109139 -0.432576 0.732616 21.1336 38.6935 -36.7363
2 1 Ar 0.358852 0.807629 16.4303 -1.91577 0.210639 -0.185753 -4.08817 -4.67795 4.93922
3 1 Ar 0.503648 0.0537653 0.569749 -1.96139 0.0744064 0.139943 -18.1423 17.1495 17.6004
4 1 Ar 16.7744 1.0719 0.806847 0.666193 0.0249856 -0.247854 1.16531 -1.88462 -3.44202
5 1 Ar 1.66544 16.4094 16.1185 -1.3104 -1.97522 -0.42022 12.9403 1.60519 7.80439
6 1 Ar 3.22622 1.31751 0.789283 0.246452 0.169864 1.48429 12.6978 0.120574 -4.07341
7 1 Ar 2.37697 0.693142 0.30139 -0.128136 0.860577 0.423109 -7.57071 19.5545 33.5223
8 1 Ar 1.2892 0.989436 0.674021 -0.0438203 0.411851 0.911281 0.776131 4.24516 -3.96814
9 1 Ar 2.53939 0.220605 16.265 0.952412 0.40765 -0.237671 6.39844 -16.1205 -33.3172
10 1 Ar 3.93337 1.48128 16.745 -1.89634 -0.382999 1.06267 2.37351 5.44259 -3.19045
11 1 Ar 3.52901 0.482631 0.108273 -1.33053 0.594741 -2.12657 -21.6154 -1.97216 8.16592
12 1 Ar 4.17452 2.08415 1.00079 0.854648 -0.632176 0.562244 13.2975 -2.30394 -18.1347
13 1 Ar 4.42793 0.261768 16.5127 -0.785681 1.26669 -1.26216 19.4432 -5.12715 -10.6724
14 1 Ar 5.79972 1.13767 0.0228567 -0.280266 -1.1952 -0.118139 1.42475 -17.2015 4.23477
15 1 Ar 5.84266 0.562497 0.988037 -0.38992 0.844996 -0.309934 -11.6163 -15.5396 -17.3927
16 1 Ar 4.77306 0.991566 0.532586 -0.58693 0.236849 -0.468423 1.02289 -1.16124 2.63306
17 1 Ar 6.25104 0.133114 16.7658 0.116808 -0.0297137 -0.0203346 -19.867 16.2673 -12.353
18 1 Ar 7.69116 0.653092 16.5381 0.84871 -0.787593 -0.5659 -4.71441 10.7257 4.17167
19 1 Ar 7.20037 16.5561 16.7339 0.444536 -0.796724 -0.783019 23.1162 -8.75993 -9.49456
20 1 Ar 6.82861 0.804047 0.726809 0.635898 -0.0377444 1.01903 2.33115 -19.4237 -12.0969
21 1 Ar 8.28748 16.7175 0.163022 1.0942 -0.801167 -1.36373 7.57334 -11.7092 -10.174
24 1 Ar 8.38993 0.595346 0.952945 -0.0260685 -1.47878 0.0135021 5.79421 -54.8741 -34.0023
22 1 Ar 9.21697 0.524319 16.492 1.11489 0.423256 -0.615333 -22.0496 9.64865 -14.6557
23 1 Ar 10.154 16.5621 1.18388 -0.62827 -0.330448 -0.0393437 4.51382 2.24106 0.591839
25 1 Ar 9.9833 0.00563616 0.0671957 1.42879 0.133228 0.810249 -9.3077 6.64537 40.7143
28 1 Ar 10.299 0.81389 1.1036 -0.696342 -1.78245 -0.467161 19.8645 0.694478 -24.7507
26 1 Ar 10.8053 0.592394 0.132107 -0.862786 -0.542225 -0.371221 11.6724 22.9484 -10.7932
27 1 Ar 11.2505 16.7339 0.785161 -1.13183 0.993421 1.69999 -6.29686 -17.353 9.8236
29 1 Ar 11.7916 0.105119 16.5193 -0.818438 -0.465666 0.633546 -24.7542 5.04582 22.3697
32 1 Ar 11.9406 0.685738 0.674351 -0.704628 -0.844897 1.44633 21.7805 -6.09524 13.9762
30 1 Ar 12.5683 0.888418 16.5593 0.321897 0.510777 0.432534 -4.33579 -13.2648 16.0481
31 1 Ar 12.8404 16.6463 0.849168 -0.286846 -0.391026 -1.59439 -19.9084 6.86911 -24.7308
33 1 Ar 13.3564 0.157844 16.5595 0.309808 0.105625 0.550661 1.68032 -9.42529 0.216283
36 1 Ar 13.2455 0.809279 0.66226 -0.0823989 -0.198094 1.02957 21.1686 -4.66533 -35.0337
34 1 Ar 14.2113 0.88745 16.62 0.965327 -0.78779 -0.0467732 -6.46652 -5.60523 21.9014
35 1 Ar 14.3305 0.197044 0.634288 -0.179712 -0.241625 -1.5187 -26.068 5.98036 -7.23414
37 1 Ar 15.1939 0.198886 0.0923742 0.774394 0.668781 0.990318 1.94756 -33.8076 32.9662
40 1 Ar 15.1115 0.988708 0.889022 -0.999442 -0.574598 -1.394 -1.7654 -30.2593 0.473576
38 1 Ar 16.0008 0.771685 0.0695282 0.581291 0.373201 0.525697 22.3478 18.5015 -4.62
39 1 Ar 15.8645 0.219259 1.04215 -0.4904 -0.160836 -1.16456 -24.1229 18.3607 -24.4806
41 1 Ar 16.6715 1.74992 16.5264 0.625281 -0.600052 0.791608 -8.09731 6.03375 5.62006
42 1 Ar 0.447517 2.87566 16.6615 0.58639 -1.08572 -1.45088 -3.16164 -17.964 24.026
43 1 Ar 0.589013 1.99286 0.763321 -0.147348 0.295397 -1.12737 5.78685 -6.09868 -0.899248
44 1 Ar 16.5144 2.61216 0.740601 1.2182 1.17747 -1.06204 55.3579 13.2003 -17.269
45 1 Ar 0.984267 1.65637 16.5951 -0.346757 2.78903 0.459517 -0.709153 -6.94635 7.28266
46 1 Ar 2.49735 2.91808 16.7527 0.223268 0.0486597 -0.100106 0.485728 -8.19537 19.5831
47 1 Ar 1.88896 2.16341 0.62931 -0.300459 -0.963181 -1.42422 -2.55759 6.96271 -12.2822
48 1 Ar 1.21845 2.94834 0.709834 1.12503 0.779973 0.751443 -4.47426 6.37063 -4.84483
49 1 Ar 2.50281 1.71996 16.5954 -1.80605 -0.229369 -0.430924 1.19593 2.26241 1.52613
50 1 Ar 4.3349 2.88608 0.287285 -0.405627 0.522762 -0.522387 4.96241 0.105286 -2.4284
51 1 Ar 4.58335 3.15019 1.43596 -1.10808 0.066906 -0.833432 -13.0407 -0.295401 -3.0231
52 1 Ar 3.2798 2.74636 0.862041 -0.448315 0.170512 -1.08773 -4.46235 -10.1282 3.99208
53 1 Ar 5.23989 2.02827 0.124415 -1.13275 -0.774065 0.0292126 -1.41673 10.9443 8.76342
54 1 Ar 6.7579 2.46567 16.6778 0.539273 0.62589 0.0457556 -11.0624 26.0446 -15.5419
55 1 Ar 6.19168 1.65253 0.839612 1.65012 -0.0750417 -0.573662 -7.34215 4.86846 -8.06331
56 1 Ar 6.03093 2.95397 0.468418 0.250031 0.172781 -0.239002 -11.7571 -1.18694 -4.1284
57 1 Ar 6.873 1.49756 16.757 -0.122889 -0.973306 0.0862134 9.13113 -28.787 -7.43792
58 1 Ar 7.81733 2.2469 16.6671 -0.599711 -1.24572 -1.05916 -18.0706 -7.97108 -0.435572
59 1 Ar 7.71596 1.32603 0.912327 0.0744077 1.19763 1.64068 -2.71594 24.7957 -9.13092
60 1 Ar 7.15042 2.26935 0.856 0.775072 -0.865213 0.788934 -1.57096 2.9048 4.72088
61 1 Ar 8.50546 1.42515 16.4696 -0.0745825 1.42773 0.0923615 2.32641 -12.0994 -1.30286
64 1 Ar 8.64966 2.02214 0.537213 0.580786 -1.8492 0.333768 6.75957 -7.29059 8.36399
62 1 Ar 9.5004 2.615 16.5058 0.679668 -0.667872 -1.10043 0.8253 -3.46937 4.26495
63 1 Ar 9.33035 1.00649 0.663236 1.08869 -1.4147 0.319743 -10.0695 -8.67356 20.9086
65 1 Ar 9.78028 1.49011 16.7171 -0.14101 1.02531 0.240253 13.1243 11.835 -27.0081
68 1 Ar 9.87954 2.10242 0.811282 -1.09893 1.28179 0.849814 -7.12968 9.42543 -28.4472
66 1 Ar 10.6635 2.39932 16.7114 -0.366284 -0.0463769 -2.19701 -6.78555 -8.10964 20.0535
67 1 Ar 11.1471 1.38055 1.11082 -0.0357264 -0.945048 0.1451 -4.10644 46.9086 -70.8786
69 1 Ar 11.5784 1.47768 0.174282 0.0311342 0.744788 0.458467 4.39639 16.5367 -18.0956
72 1 Ar 11.7072 2.48114 0.628157 0.671254 0.400272 0.991991 -0.460261 1.90348 -0.41921
70 1 Ar 12.61 2.70483 0.0607469 0.735099 1.2733 0.614238 5.78572 0.779836 -4.21186
71 1 Ar 12.6722 1.72414 0.751644 -1.01603 0.729157 0.155304 -7.03081 4.23462 -1.90772
73 1 Ar 13.4248 1.83578 16.6838 0.310247 -0.947856 1.17294 -7.73123 -2.42431 4.24115
76 1 Ar 13.4127 2.49339 1.04752 1.03487 -0.549971 1.88294 2.81148 4.9358 -5.47983
74 1 Ar 14.5808 2.61005 0.750205 1.26331 0.92041 -0.00922773 1.45335 -0.56736 -0.726433
75 1 Ar 14.0911 1.46708 0.754824 -0.774942 -0.87994 -0.878409 4.76947 5.59008 3.41452
77 1 Ar 15.1125 1.67913 0.157962 -0.981505 -0.0885811 -1.19343 -12.092 9.18417 -22.4285
80 1 Ar 14.3005 2.52025 1.84106 0.588558 1.62935 0.158643 -23.0139 -7.53903 -14.0418
78 1 Ar 15.8595 2.59517 16.7831 0.101174 -0.598576 -0.408343 -20.1739 -1.00099 -15.5981
79 1 Ar 15.939 1.74585 0.710008 0.243117 -0.579665 0.635618 14.392 -6.32312 15.955
81 1 Ar 16.5324 3.87091 0.04441 0.150896 -0.707859 1.16036 -40.5397 -30.6689 -11.7814
82 1 Ar 0.578885 4.3391 16.7883 0.200938 0.115698 0.420031 36.4197 21.1428 10.8226
83 1 Ar 0.382062 3.61036 0.835635 -0.370056 0.0891117 0.51582 0.697326 -0.0127461 8.12271
84 1 Ar 16.3004 4.3313 0.963534 0.151869 0.868685 -0.499351 -2.67767 4.16157 -24.6895
85 1 Ar 1.41711 3.74739 16.6812 -0.0256758 -0.413505 1.15732 -15.752 -20.4863 4.01049
86 1 Ar 2.37174 4.00813 16.6332 -0.141676 -0.203664 1.76142 19.4326 19.7501 7.93562
87 1 Ar 2.49827 3.69267 0.878264 -0.420614 -0.110764 -0.331006 2.98512 -3.49868 2.89172
88 1 Ar 1.38807 4.13256 0.958149 -0.363294 0.532872 1.09246 10.7705 -6.9223 -21.8692
89 1 Ar 3.47132 3.49102 0.14662 1.04396 1.10795 0.0879769 -36.5385 -19.0573 -65.6797
90 1 Ar 4.19504 4.1897 16.746 -1.91829 1.56437 1.33478 -1.71106 -1.43744 -19.1209
91 1 Ar 3.73336 3.71787 1.02192 -0.0600504 -0.353035 -0.351307 18.5821 25.6205 60.4888
92 1 Ar 3.15229 4.55967 0.257446 -0.324749 -0.910741 -0.208127 2.30176 -1.16057 10.053
93 1 Ar 5.38019 3.36499 16.3803 -0.419875 0.699821 1.27224 -1.72036 -14.4682 7.00201
94 1 Ar 5.89236 4.26887 16.5642 -1.17262 0.479481 0.916584 21.057 -0.357222 12.8324
95 1 Ar 6.57723 3.2738 1.28241 -1.03542 -0.253983 -0.0973334 23.7052 -5.75403 1.9298
96 1 Ar 4.98811 4.30783 0.591475 -1.42636 -0.165056 -0.777048 19.3021 -2.78834 8.5139
97 1 Ar 7.20681 3.30932 0.311961 -0.835821 0.626833 1.13874 3.56645 6.83251 5.51711
98 1 Ar 8.11086 3.92774 0.500683 -0.366746 0.0930066 0.140218 -9.9912 28.0778 6.53094
99 1 Ar 7.96798 3.30367 1.2952 -1.03208 0.79347 -0.769437 -1.13894 -16.4349 14.8187
100 1 Ar 6.94751 4.45142 0.201578 -0.87126 0.360843 0.201514 14.8548 -0.800838 -0.608671
101 1 Ar 8.37533 3.00922 0.296921 1.22838 1.58844 -0.444702 7.73372 -18.2707 -10.3058
104 1 Ar 9.02608 4.25817 1.02645 1.03857 -0.0254686 -0.0229972 -6.01919 4.72151 2.42017
102 1 Ar 9.09017 4.01603 16.7401 0.33985 -0.285003 -0.600053 -0.124072 -2.11529 -4.7508
103 1 Ar 9.35459 3.08904 0.678147 -0.933457 -0.170716 1.8474 4.98575 2.8849 -6.05656
105 1 Ar 10.195 3.4809 16.2759 0.0188721 -1.2339 0.0988731 -12.9183 -61.1107 16.3523
108 1 Ar 10.0355 3.9729 0.817921 1.4771 -0.430666 -1.247 -5.93919 -9.28293 -0.699447
106 1 Ar 10.8833 4.10793 16.5374 0.298857 -0.735632 -0.833316 43.877 26.98 11.467
107 1 Ar 10.9465 3.37641 0.844042 -0.21612 -0.166663 -0.633262 0.625651 -6.71609 0.600123
109 1 Ar 11.3602 3.11947 16.4874 -0.462293 -1.03885 -0.216158 12.3907 9.81081 -4.21203
112 1 Ar 11.6726 4.12757 0.610438 -0.231552 0.886642 -0.181461 -16.5129 -16.7529 -8.97688
110 1 Ar 12.2914 3.95466 16.5523 0.253133 0.202271 -1.40462 -2.84962 -0.530948 -2.99608
111 1 Ar 12.4959 3.5187 0.82381 -0.208918 -0.204839 0.342211 -1.03419 -12.4368 -3.16704
113 1 Ar 13.4769 3.49291 0.355482 0.1176 -0.149176 -0.224676 1.6401 -5.61361 16.2582
116 1 Ar 13.1708 4.14658 1.30358 -0.760587 -0.258947 0.688107 -30.247 34.0047 -8.75701
114 1 Ar 14.3011 4.06795 16.7123 -1.79007 -0.494216 -0.925858 -13.8994 21.3856 53.2118
115 1 Ar 14.0127 3.70985 1.38398 0.374032 -0.38317 0.115134 48.7338 -29.4874 5.29757
117 1 Ar 15.0157 3.36124 16.736 0.38695 0.0276843 -0.582733 16.8683 -18.7413 10.9052
120 1 Ar 14.9203 4.20223 1.06828 -0.266314 0.0604837 0.94436 -9.02398 -7.33703 -20.9547
118 1 Ar 15.6382 4.46996 0.16257 0.295607 1.54596 0.60154 -12.6724 6.82043 4.07264
119 1 Ar 15.7408 3.43493 0.810991 -1.36219 -0.278847 -0.254472 -7.14545 4.53907 -13.9142
121 1 Ar 16.5736 4.99428 16.6776 0.64676 0.734725 0.332426 -10.0586 5.8621 1.10957
122 1 Ar 0.717867 5.48424 0.00468741 1.23149 0.109815 -0.954364 -8.67855 3.06554 -4.65428
123 1 Ar 0.583189 4.85448 0.987538 0.594632 2.0707 2.01454 -2.22373 -8.52188 -15.8211
124 1 Ar 16.4349 5.74992 1.18465 -0.0178552 -1.21651 0.184976 -7.82072 -3.67956 -5.92657
125 1 Ar 1.61178 4.83888 16.6394 -1.8239 0.850051 -0.147855 7.68251 -22.9363 -8.20085
126 1 Ar 2.52027 5.47878 16.6716 0.424318 -1.30619 0.65721 6.20095 -10.0464 0.187506
127 1 Ar 2.26771 4.75951 0.850153 1.03184 -1.50682 -0.4072 0.313841 0.398107 -18.5162
128 1 Ar 1.58621 5.55222 0.540014 1.65096 -0.122661 2.09997 -4.74651 -0.664288 35.2799
129 1 Ar 3.67929 5.1014 16.3346 0.188481 -0.00927664 0.724786 -16.016 -24.4736 8.98288
130 1 Ar 3.96695 6.03486 16.1119 -0.262027 0.972768 0.216768 11.4369 18.8218 16.8795
131 1 Ar 4.06082 4.83846 0.793158 -1.27324 -0.896982 -0.145243 -24.2292 -9.48208 40.663
132 1 Ar 3.22071 5.57186 0.875662 -0.868467 0.152241 -0.136291 -0.450479 6.43643 -8.71547
133 1 Ar 4.59327 5.18179 0.065619 -1.92669 -0.234285 0.10997 26.3178 24.6826 -22.7521
134 1 Ar 6.03767 6.26656 16.6093 -0.793615 -0.233805 0.0476493 -0.181872 -9.39253 -3.13916
135 1 Ar 6.16859 5.23609 0.42892 -0.18861 0.105559 0.207141 0.433272 -17.1837 3.19232
136 1 Ar 5.35503 5.83264 0.529795 -0.604758 -0.678058 1.0477 -17.0474 10.195 7.47586
137 1 Ar 6.66952 5.18513 16.2645 0.250062 0.133893 -0.396049 -26.7829 40.6815 13.6375
138 1 Ar 7.912 6.05525 16.4826 2.28132 -0.713078 0.482851 4.4052 -15.1785 -5.68829
139 1 Ar 8.00427 4.92842 1.0894 -1.23466 -0.100694 0.17141 2.86398 -11.0499 -9.68699
140 1 Ar 7.12626 5.479 0.685891 -0.62236 0.899051 -0.419703 17.3834 5.87118 1.45047
141 1 Ar 8.09703 4.77491 16.7511 -0.105019 -0.384496 0.137642 0.562067 18.2252 -10.9663
144 1 Ar 8.2587 5.89748 0.71117 -0.383278 0.804939 -0.0431888 -6.70635 -5.46315 -5.05181
142 1 Ar 9.393 6.11903 16.4141 -1.01513 -1.90591 -0.211765 16.439 -19.9464 -1.58856
143 1 Ar 9.1484 5.27851 0.346385 1.44347 0.389179 0.923199 -8.17768 -9.31642 -2.93023
145 1 Ar 10.0115 4.63009 16.6879 -0.817976 0.0215789 -0.576223 -14.4538 8.86923 10.6736
148 1 Ar 9.86183 5.93386 0.740223 -0.448218 -1.37571 -1.34964 11.7586 -1.87491 -2.70241
146 1 Ar 10.7412 5.39976 16.7914 0.610336 -0.27648 -0.641911 5.07486 14.6206 -6.44187
147 1 Ar 10.7059 4.75622 0.789985 0.377273 -0.655193 -0.728584 7.99988 -8.90151 -2.83423
149 1 Ar 11.7889 5.01628 16.4382 0.73292 -0.411798 0.134634 0.747161 -7.45765 3.16566
152 1 Ar 11.8474 6.57303 0.649216 0.347562 0.672154 -0.177378 -11.4187 10.2114 -9.92849
150 1 Ar 12.6334 5.52265 0.205127 0.548458 0.358475 0.466165 -20.0783 26.6322 4.84722
151 1 Ar 11.8662 5.06772 0.860008 -1.0298 -0.765852 -1.35917 -8.81394 14.6909 -17.96
153 1 Ar 13.0372 4.62101 0.183522 0.450764 -2.39879 1.18091 -6.48092 -30.2078 16.8206
156 1 Ar 14.4071 6.08715 1.87486 1.47069 0.149475 0.18874 -37.0659 3.16882 -45.5048
154 1 Ar 13.5852 5.95768 0.706173 -0.74987 -0.0517089 1.50732 16.5608 -8.48962 5.39939
155 1 Ar 13.9309 4.81791 0.727195 0.00543588 0.0143877 -0.183342 -2.1739 -4.80064 6.22966
157 1 Ar 14.4495 5.39615 16.7752 -0.886706 1.005 0.338024 8.00436 8.23905 1.75148
160 1 Ar 14.7375 6.34375 0.862625 -0.238471 -0.474268 0.483989 2.61246 19.0095 11.2766
158 1 Ar 15.5659 5.7767 0.360064 0.784683 -1.98047 0.0746596 5.50914 2.60074 -5.2812
159 1 Ar 14.8294 5.34772 1.01598 -0.754653 -0.199481 0.754236 2.50505 -19.2831 13.5525
161 1 Ar 16.4532 6.62619 0.0228698 0.0625518 -0.0714892 0.738439 8.87757 5.58359 12.5948
162 1 Ar 0.668507 7.44532 0.0608499 -0.117391 0.96864 -0.711677 -45.9252 -36.8089 -3.90069
163 1 Ar 0.643065 6.29289 0.725867 0.383157 -1.19833 -0.250144 -26.9828 -0.366742 -25.4486
164 1 Ar 0.170622 7.23399 1.00635 -1.79794 -1.16092 1.2509 -21.993 1.96378 -18.1816
165 1 Ar 1.77098 6.22305 16.5856 0.183922 -0.394909 -0.386771 -3.05889 24.4684 26.8299
166 1 Ar 2.32379 7.21582 0.137985 -0.568961 0.337448 0.0115951 -31.8164 -45.691 -5.81104
167 1 Ar 2.27487 6.25485 0.804878 0.771568 -0.386666 -0.216417 11.214 14.1936 -4.0439
168 1 Ar 1.41213 7.11732 0.748526 -0.592264 0.629603 0.494857 5.9772 -1.64551 4.52786
169 1 Ar 3.00927 6.43249 16.7887 -0.925069 -0.490669 0.566377 10.8705 -3.35419 1.84003
170 1 Ar 4.32796 7.72079 0.691328 1.57342 -0.144561 -0.695065 -0.757949 10.6286 1.44792
171 1 Ar 4.19249 6.04056 0.711604 0.949432 -0.904669 0.705557 0.693858 -4.87325 -10.4076
172 1 Ar 3.45489 7.12325 0.889347 -0.490309 1.18692 0.717197 -5.95217 -7.45337 -5.02326
173 1 Ar 4.95582 6.87883 0.489141 -1.37345 -0.252783 1.72219 15.2723 -9.19716 -15.2788
174 1 Ar 6.24992 7.31358 16.5783 -0.251678 -0.529602 -0.277462 -2.71685 16.3778 -10.6244
175 1 Ar 6.30191 7.10961 0.80873 -0.357524 -0.942029 0.634607 -5.06172 -14.2224 -2.68235
176 1 Ar 5.44268 7.82122 0.533461 1.23259 0.114347 0.214259 -8.223 -46.3832 -30.3778
177 1 Ar 7.01342 6.59869 0.0242065 -0.442527 0.462157 -0.0746653 4.39876 -0.646918 9.34245
178 1 Ar 7.37217 8.04702 16.6206 1.07252 -0.0676815 -0.410333 12.6012 -11.877 -7.18503
179 1 Ar 8.01727 6.9305 0.273009 -1.05157 1.51497 -0.727829 -4.08139 10.5665 14.2836
180 1 Ar 7.15385 7.63915 0.864146 1.57798 -0.845097 1.12157 28.1861 -5.13166 9.12431
181 1 Ar 8.72842 6.91088 16.2907 -0.0605744 -0.0788472 -0.848278 -25.0989 4.44585 14.3665
184 1 Ar 8.2221 7.76772 1.08676 -0.468367 0.0776774 -0.425317 1.35108 -11.2213 -1.90044
182 1 Ar 9.15086 7.79028 16.6548 -1.3415 0.623958 0.607754 19.2395 -5.0735 10.435
183 1 Ar 9.04571 6.56989 0.484693 0.291975 -0.765559 -0.992592 0.314104 13.8939 12.635
185 1 Ar 10.0706 6.86361 16.7206 0.486687 0.14277 1.10471 -38.7182 22.7212 1.72102
188 1 Ar 10.2024 7.81723 0.560844 -0.827563 0.829687 0.788982 -6.81297 0.0804047 8.49782
186 1 Ar 10.769 7.75483 16.4463 0.143758 -1.3649 -0.411695 6.05893 2.99843 -22.1858
187 1 Ar 11.2483 7.53387 0.471534 -0.0663122 -0.283538 0.527969 -1.30396 -23.4567 26.3363
189 1 Ar 10.9829 6.53807 16.7285 -0.556841 -0.0792917 0.791653 40.8709 -14.5508 -0.245755
192 1 Ar 11.9433 8.20655 0.736852 -0.519218 -0.589299 0.0745877 18.3862 19.0214 18.4903
190 1 Ar 12.2061 7.55656 0.00342101 -0.0885034 -0.171869 0.314392 13.0643 -15.621 -14.7498
191 1 Ar 12.814 6.82878 1.01437 0.82729 0.487018 -1.23453 -41.2386 -14.2992 2.06325
193 1 Ar 13.1911 6.88558 16.585 0.657497 0.951273 0.229899 -13.5996 7.44524 11.9408
196 1 Ar 12.9763 7.81647 0.749834 -0.136994 1.0056 0.823247 -0.883149 22.8724 -8.36927
194 1 Ar 14.0045 8.30368 0.21561 -1.17847 0.866687 -0.649407 1.29849 11.1775 12.2496
195 1 Ar 13.7147 7.10319 0.75477 1.44289 -0.0804426 -0.436599 52.1016 -1.71148 -20.2706
197 1 Ar 14.8654 7.59521 0.572378 -0.166358 -2.1266 1.72604 -2.97078 1.6847 -5.93521
200 1 Ar 15.4571 6.24752 1.6507 1.60263 0.895893 -0.783703 1.49474 6.94258 -1.86161
198 1 Ar 15.7175 7.53997 16.7062 -0.413362 0.304847 0.53558 5.20893 2.28718 -15.7856
199 1 Ar 15.7594 6.90192 0.765295 0.247727 1.28038 0.302945 -6.63165 -4.03065 7.97978
201 1 Ar 16.7294 8.18325 16.646 0.763751 -0.279361 -0.139381 -23.9046 -27.9803 0.510612
203 1 Ar 0.703972 8.17001 0.847387 1.41807 -0.556267 -1.05794 7.2283 -11.0586 -18.7074
205 1 Ar 1.52226 7.87859 16.8077 -0.610362 -0.263728 2.53124 39.2292 36.9892 -6.42158
207 1 Ar 2.40382 8.08933 0.614929 0.829167 0.822954 -0.066795 -6.77873 8.61217 18.5902
209 1 Ar 3.1177 7.75011 16.7572 0.0401431 -0.389126 -0.494987 39.2121 13.6673 -14.8027
211 1 Ar 4.2882 8.83635 1.42094 -0.294995 -1.04665 -2.28846 7.58831 -4.36948 4.36272
213 1 Ar 4.91327 7.87414 16.4057 -0.854912 2.03802 0.733411 19.2653 7.83457 12.1984
215 1 Ar 6.60144 8.34988 0.412716 1.45712 -0.0373812 -0.635082 16.4162 2.36136 19.5152
217 1 Ar 6.59329 8.72775 16.1283 -1.21823 0.924543 1.38808 -2.14558 -13.1956 3.72304
219 1 Ar 7.62475 8.62073 1.01072 0.898633 -0.0451045 -0.271464 -2.22938 4.61713 -13.0329
221 1 Ar 8.40689 8.47311 16.736 0.452972 0.84112 0.621032 -13.2411 4.28377 -1.79185
223 1 Ar 9.11561 8.56761 0.772305 -0.474469 1.20963 -0.344927 11.9185 -10.8122 1.03835
225 1 Ar 10.0109 8.66544 16.7534 0.166263 0.682319 -0.749726 -5.58325 2.57635 -8.91616
227 1 Ar 11.0538 8.70005 0.942027 -1.79445 -0.682993 0.830687 -38.223 -18.9427 7.38131
229 1 Ar 11.6628 8.44206 16.4999 -1.0057 0.285185 1.32524 -4.81002 5.4613 1.71542
231 1 Ar 12.7102 8.96369 0.607867 0.267859 -0.459123 -0.366217 2.20037 -19.6526 35.0119
233 1 Ar 14.1336 9.54212 0.0203965 0.954322 0.694551 0.827325 2.84043 -8.60274 5.02543
235 1 Ar 14.1515 8.43121 1.36063 -0.0021765 -1.68373 0.122702 10.565 -9.15789 -13.341
237 1 Ar 15.0501 8.42503 16.6258 0.269617 0.729083 -0.591576 -1.27902 -2.48945 -7.33714
239 1 Ar 16.1159 7.97506 0.768085 0.267115 0.00964963 -1.43611 6.81832 3.66528 7.87249
202 1 Ar 0.518331 8.96102 0.0764463 0.0752906 0.24827 -0.734499 26.4347 -18.4383 4.24398
204 1 Ar 16.4479 9.08557 0.857827 0.028243 -0.471498 0.321737 14.9559 -8.45451 19.3188
241 1 Ar 0.0116243 9.79695 16.7351 -1.59607 1.28075 -1.31566 -16.8554 29.4774 2.78352
243 1 Ar 0.796495 9.61727 0.835914 1.63624 0.0105666 -0.760404 -0.240294 21.0076 -14.4862
206 1 Ar 2.53893 9.07987 0.338595 0.16968 -0.794872 -0.50939 -39.8114 16.4393 20.2959
208 1 Ar 1.55895 8.81755 0.758315 -0.43035 0.186499 -0.297313 -3.37368 3.10548 -6.03714
245 1 Ar 1.80409 9.88849 0.232313 -0.61778 0.164345 1.03704 -15.1371 -13.9643 0.332536
247 1 Ar 2.61385 9.88575 1.02002 -0.71244 -0.182546 -1.34654 -8.93954 14.1498 21.1478
210 1 Ar 3.89326 8.51516 0.0509932 0.495883 -0.737395 -1.27944 -24.2817 -6.47855 -0.595063
212 1 Ar 3.49132 9.08249 0.866148 0.337762 0.9413 0.490427 -15.4006 6.28976 -0.908106
249 1 Ar 3.20979 9.83812 0.211792 -0.748215 -0.390972 0.0159196 9.04026 7.18953 -6.53156
251 1 Ar 4.29502 9.57977 0.26989 -1.14196 -1.24468 -0.160978 -10.9429 12.8319 -2.58547
214 1 Ar 5.77106 8.70559 0.0837766 0.41017 0.845188 0.859502 -50.3125 11.1639 -38.591
216 1 Ar 4.79287 8.68891 0.478635 0.336817 1.35765 -1.32587 14.7916 -2.7019 8.44479
253 1 Ar 5.2918 9.68204 0.623782 -0.691284 0.604297 0.456326 6.47977 -2.50731 8.5662
255 1 Ar 6.24399 10.0359 1.02133 -0.784763 0.938183 0.481702 1.46457 2.74511 5.20865
218 1 Ar 7.53239 9.15983 16.6839 -0.763462 1.05961 -0.484509 -16.4987 1.10586 11.0096
220 1 Ar 7.69946 10.055 0.901147 -0.587307 -0.985962 -0.641634 -15.865 -11.4473 -3.52437
257 1 Ar 6.39434 9.48915 0.100748 -0.336304 -0.653773 -0.0839246 9.03848 11.5674 -1.33932
259 1 Ar 8.24592 10.4243 0.0195735 1.61808 0.788055 0.481585 -1.45438 -17.1734 -5.48454
224 1 Ar 8.35697 9.2546 0.656166 0.554931 1.65104 0.407944 2.51861 18.5875 1.15063
261 1 Ar 7.52064 10.4792 15.8577 -1.55022 1.86623 -0.258954 18.9332 -14.5399 7.74394
222 1 Ar 9.2024 9.50383 16.7963 0.44325 0.538435 0.706461 -8.49184 -6.29488 7.05133
228 1 Ar 10.0008 9.28148 0.861157 0.34536 0.364243 0.320435 3.31823 0.00808242 -3.92839
263 1 Ar 9.14453 10.5461 0.953031 -0.536926 -0.0277963 -0.574176 -5.22064 -10.6895 -7.96672
265 1 Ar 9.88473 10.3165 0.163144 -1.5171 1.15455 0.705546 4.17533 -17.7382 -13.3175
226 1 Ar 10.7399 9.46679 0.109847 0.811844 -1.44203 1.18121 -0.946181 4.30579 -4.56803
232 1 Ar 11.6663 9.40932 0.646514 -0.434922 0.362015 -0.407614 27.7983 22.8174 -7.00946
267 1 Ar 10.7614 10.0722 1.15462 1.90904 0.22433 1.10372 0.453738 -0.860947 -11.0419
269 1 Ar 11.365 10.3726 0.19728 -0.726897 1.31634 -0.255929 -2.0667 -0.843175 -4.32041
230 1 Ar 12.63 9.61663 16.6793 0.518321 0.169444 0.0308853 -10.5858 23.0461 -14.1769
236 1 Ar 13.659 9.33265 1.08756 0.792162 -2.00544 -0.38035 -2.14779 10.1973 -4.09296
271 1 Ar 12.6851 10.0654 0.888247 -1.05029 -0.443651 0.146668 -3.4588 -12.2196 2.07074
273 1 Ar 13.4639 10.3677 16.7483 -0.0128502 -0.289414 -0.332947 9.81728 0.268022 16.1199
234 1 Ar 14.7625 9.60522 0.98675 -0.968754 0.802146 1.25439 -5.80754 7.32616 -4.98149
240 1 Ar 15.3684 8.79535 0.773572 -0.232684 1.49003 0.38891 4.71261 2.56168 -10.3563
275 1 Ar 15.1524 10.9448 0.918628 -0.324448 -0.0247423 0.0913493 -5.44302 -12.6961 3.25225
277 1 Ar 15.3327 9.88659 0.0914274 -1.09392 0.108479 -0.0869083 -8.45424 -1.45007 -7.92105
238 1 Ar 16.1134 8.99945 16.733 -0.505498 -1.01935 0.198273 -27.5494 3.28661 -30.7163
279 1 Ar 15.9853 10.1199 0.874796 1.08428 -0.789268 -0.392136 4.55011 -2.10244 11.8206
242 1 Ar 1.02901 10.6554 16.5557 0.33121 1.1154 0.168884 3.37736 -2.44653 4.21321
244 1 Ar 0.282063 10.6016 0.63275 -0.317062 1.20786 1.42805 1.68276 2.823 -2.19701
281 1 Ar 0.464614 11.5688 16.5387 0.285146 0.689703 -0.390294 -11.4198 3.88305 4.79465
283 1 Ar 0.642893 11.7695 0.859328 0.0607112 -0.161405 -0.53168 10.6342 -0.927647 6.84955
246 1 Ar 2.49036 10.6135 0.0243137 0.139597 -1.51564 -0.534474 12.1025 17.4778 7.87086
248 1 Ar 1.80307 10.7938 0.876416 -0.2871 -0.494533 1.43324 -0.881559 -0.288144 0.874171
285 1 Ar 1.49827 11.7166 0.159934 -0.112803 1.49464 -0.500651 4.00118 -3.14089 -3.42258
287 1 Ar 2.60493 11.8836 0.703386 0.0723136 -1.05224 1.23071 -5.84349 -3.28541 11.2046
250 1 Ar 4.61537 10.681 0.521843 0.712317 -0.224914 0.9675 -3.00562 -7.42397 16.2924
252 1 Ar 2.91682 10.9632 1.10407 0.391424 -0.956026 1.52699 0.490039 -9.61506 0.936454
289 1 Ar 3.19115 11.7931 16.593 1.12671 -0.454234 -1.31678 1.21585 8.87085 -0.7475
291 1 Ar 4.0075 11.7447 0.522126 -0.0240107 -1.07139 -0.768564 -5.13772 -2.28749 -1.19375
254 1 Ar 5.79867 10.6144 0.179957 -0.233635 -1.65403 -0.0332408 -12.2099 -4.93273 -11.4472
256 1 Ar 5.34513 11.0915 1.20114 -0.553973 -0.437221 -0.156522 12.4391 -2.89301 4.94709
293 1 Ar 5.5001 11.7597 0.363497 -0.0799558 1.35615 -1.84189 2.33824 -15.502 -1.60514
295 1 Ar 6.32702 11.8561 1.4479 0.276743 -0.677007 -1.06554 -33.8585 10.5566 -3.73862
258 1 Ar 7.3468 11.3739 0.107827 -1.51564 -1.34115 0.43497 5.92578 -1.02161 4.08511
260 1 Ar 7.21702 10.3871 1.82337 0.580065 0.159203 0.103954 -16.642 19.74 -20.8059
297 1 Ar 6.52186 11.0554 0.758757 -0.576438 -0.63258 1.10604 5.59257 3.26477 0.425496
299 1 Ar 7.23557 11.5311 1.39665 -0.185234 -0.146622 -1.73769 35.8047 -18.6457 -14.4358
264 1 Ar 8.18315 10.9599 0.92065 -0.895904 -0.330678 -0.521364 -6.65565 31.2791 2.96428
301 1 Ar 8.16812 12.1156 0.32989 0.197142 0.563804 1.05075 -10.5517 13.522 -17.3317
262 1 Ar 9.05946 11.6387 0.610713 0.848604 1.87703 1.24654 9.53147 -3.84315 5.52228
268 1 Ar 10.0299 11.0426 0.852151 0.681009 -0.320415 -0.475237 19.6136 25.283 11.5191
303 1 Ar 9.71215 12.0186 1.54354 0.0648193 0.94164 0.866223 -25.1231 -6.48289 -20.3792
305 1 Ar 10.1833 12.0659 0.293364 -1.54655 0.514442 -0.504304 -11.8075 -0.400677 -4.68007
266 1 Ar 11.0777 11.4386 0.427668 0.225488 0.0381584 1.90575 6.20184 -10.2614 -14.1442
272 1 Ar 11.7698 10.7633 1.10431 0.17437 -0.231227 0.694464 1.73356 3.11418 7.88231
307 1 Ar 10.6628 11.9123 1.21751 -1.52697 0.945491 0.379982 9.62213 7.87535 16.1317
309 1 Ar 12.0684 11.9923 1.04832 0.563882 -0.311681 1.9219 0.424922 -3.36491 -3.55151
270 1 Ar 12.127 11.3378 0.187942 0.966126 1.46357 -0.965237 -5.82778 1.80275 24.4486
276 1 Ar 14.0488 10.6154 0.796578 0.416052 0.314233 0.855021 -0.711607 -15.9729 20.8299
311 1 Ar 13.004 11.046 0.852201 0.698518 0.0997009 -1.08502 -2.61853 12.4531 2.59213
313 1 Ar 13.7375 11.4533 0.217615 -0.687155 -1.68955 -1.28925 1.43792 14.269 -2.29229
274 1 Ar 14.4619 10.8062 16.6828 -0.247623 -1.02967 -0.994613 24.253 -2.18375 -19.7669
280 1 Ar 15.4309 11.4931 0.0640483 -1.17125 -1.07344 0.724564 -30.1711 21.4638 1.04147
315 1 Ar 14.225 11.568 1.23962 1.605 -0.0149761 -0.851792 7.84905 9.87595 0.197404
317 1 Ar 14.6201 12.0973 0.158561 2.00535 -0.572473 -1.64789 13.2551 -6.28474 -10.5746
278 1 Ar 16.1224 10.8228 0.087286 0.235821 0.161035 -0.724779 32.0811 -36.0156 -4.54733
319 1 Ar 16.4402 11.7273 0.619491 -1.15555 -0.201621 0.852023 10.4478 -26.7927 10.0535
282 1 Ar 0.689135 12.5798 0.130997 0.939218 0.535881 -0.18705 -9.71753 -21.2777 -1.11753
284 1 Ar 0.19466 12.9362 0.999942 -0.708857 1.44548 0.229879 -9.25592 -8.13558 -4.22622
321 1 Ar 16.595 13.41 0.0494149 0.0029224 -1.06049 0.0524584 -0.626057 -22.5577 -21.5603
323 1 Ar 0.958309 13.6345 1.06696 0.504316 0.532345 0.333682 0.969597 -11.4858 1.20142
286 1 Ar 2.35378 12.5907 16.7906 0.21146 0.377168 1.03195 -6.94003 3.39586 -0.432874
288 1 Ar 1.57818 12.5778 0.824865 -1.67995 0.375648 -0.0856266 0.433891 5.5345 4.39906
325 1 Ar 1.29294 13.3813 0.0750117 0.174421 0.57866 0.730423 24.0673 14.5703 4.41893
327 1 Ar 2.46162 13.3878 0.92046 0.132884 -0.248369 -0.0717852 -0.98825 4.21222 -17.3816
290 1 Ar 4.23668 12.4805 15.7547 1.03529 -1.4498 -0.0902254 11.294 1.67468 15.8277
292 1 Ar 3.3079 12.7243 0.645635 -0.15607 -1.07839 1.37906 3.26236 -1.22788 -0.143505
329 1 Ar 3.87245 13.22 16.6221 1.46205 0.784825 0.381964 -1.89105 -0.696931 -6.49661
331 1 Ar 4.44011 12.8064 0.59729 0.146358 0.253251 -1.19703 -7.32885 22.536 -12.7913
294 1 Ar 6.24633 12.2586 16.3952 -0.580423 0.82308 -1.53677 -4.82711 2.02597 4.24508
296 1 Ar 5.48979 12.7718 0.251345 -0.600473 -0.227003 1.36395 -0.741823 18.2668 -6.90906
333 1 Ar 4.91051 13.4017 16.4049 0.492403 -0.825419 -1.32932 -0.452718 -2.54571 -4.88867
335 1 Ar 5.38687 13.9036 0.417766 -1.27958 0.0401989 -0.950338 7.94643 -6.46931 -1.60956
298 1 Ar 7.03617 13.0545 16.4128 -1.08241 0.757278 0.470155 6.43398 -1.63259 5.44999
300 1 Ar 7.07568 12.5715 0.688871 1.06093 -0.34557 -0.580304 10.782 -12.3131 1.92711
337 1 Ar 6.38871 13.3242 0.479933 0.138518 1.2127 -1.05367 -11.0813 13.1574 -21.1365
339 1 Ar 7.88984 13.1762 1.23494 1.74711 0.573547 0.444831 -3.72251 -11.5579 20.2491
304 1 Ar 8.173 12.0285 1.34023 -0.453165 0.305029 -0.463587 -5.77547 -8.43171 12.3147
341 1 Ar 7.93364 13.4235 0.246444 1.07523 0.469132 -0.704634 3.08205 3.18065 -2.25643
302 1 Ar 9.00154 13.1685 0.533366 -0.961281 -0.493496 1.05518 2.03298 -0.876028 -2.14202
308 1 Ar 10.1124 13.0024 1.03966 -1.08108 0.151649 -0.472756 -5.46416 -26.0384 -0.441826
343 1 Ar 8.52914 14.0164 1.12205 0.504368 -0.462316 0.629893 -7.91235 6.49487 -17.5241
345 1 Ar 10.0922 13.7622 0.389422 -0.921946 -0.177595 -0.242856 -4.11175 16.3559 -28.3429
306 1 Ar 11.1069 12.61 0.460483 -0.909499 -0.459063 1.65562 -2.78462 0.0743535 8.71062
312 1 Ar 12.0977 12.7672 1.77573 0.779033 -1.12131 2.2638 -27.5758 -10.4636 -14.3296
347 1 Ar 10.7848 13.848 1.17897 -1.57069 -0.723956 -1.32992 5.46504 -32.6447 -31.6659
349 1 Ar 11.9402 13.1064 0.0299475 1.11899 -0.4167 -0.520885 41.3068 0.385743 12.4909
310 1 Ar 12.9633 12.1889 0.286955 -0.303582 1.4388 -1.67139 -12.0714 -0.681537 9.29536
316 1 Ar 13.9602 12.5123 0.754603 0.365323 -0.785866 0.988627 -19.3074 4.82255 23.8874
351 1 Ar 12.6955 13.2897 0.93926 0.705267 0.854244 0.193569 6.76207 0.938148 -15.4776
353 1 Ar 13.4596 13.0862 0.0561001 -1.15348 -1.26637 -0.209732 -14.3923 16.8238 20.7871
314 1 Ar 14.3625 12.993 16.447 1.06376 -1.57022 -0.0855007 8.8755 -3.53738 -24.455
320 1 Ar 15.0248 12.5714 1.1259 -0.0409414 -0.0858028 1.94214 -2.89547 3.51704 -7.18735
355 1 Ar 14.4185 13.4681 0.623136 -0.249275 -1.36226 -0.815468 2.88702 -3.95475 10.6536
357 1 Ar 15.3012 13.3327 16.6945 0.605295 -0.0380273 0.315851 9.23437 8.18359 3.52188
318 1 Ar 15.8464 12.4312 0.298772 -2.01598 0.936722 0.437686 -17.5102 33.3694 -4.85915
359 1 Ar 15.8505 13.2544 1.05811 -2.17723 1.00076 -0.279933 -3.60608 -13.4015 -16.9108
322 1 Ar 0.802086 14.5278 0.179487 0.0391724 -0.3647 -1.12295 -3.30987 -6.08129 2.8838
324 1 Ar 16.5271 13.9883 0.850493 -0.480891 -0.322421 0.621161 16.9511 27.0113 14.5097
361 1 Ar 16.6897 15.3393 0.119265 0.557302 1.15156 0.286814 -8.96906 -7.65695 3.97393
363 1 Ar 0.593011 15.5511 0.844733 -0.137684 0.175972 0.817965 10.1434 6.66291 2.16585