ITEM: TIMESTEP
7000
ITEM: NUMBER OF ATOMS
4000
ITEM: BOX BOUNDS pp pp pp
0.0000000000000000e+00 1.6795961913825074e+01
0.0000000000000000e+00 1.6795961913825074e+01
0.0000000000000000e+00 1.6795961913825074e+01
ITEM: ATOMS id type element x y z vx vy vz fx fy fz
434 1 Ar 16.483 1.36481 0.619372 1.14323 -0.777257 -0.181517 3.25798 -10.2259 -11.2043
446 1 Ar 1.38206 0.833452 0.786107 0.180758 -0.598052 -1.53037 -18.7953 -5.22733 -7.9671
3966 1 Ar 0.327862 0.334206 0.450719 0.123141 0.16239 -0.667929 2.44422 1.31184 -0.411914
761 1 Ar 3.2074 0.417392 0.800629 -0.34495 1.18252 0.45387 9.38931 12.0091 6.19246
91 1 Ar 2.29613 0.656823 0.271266 -0.0624219 -0.586229 0.0790991 25.6481 -2.4726 2.7648
487 1 Ar 2.70782 2.03945 1.33973 0.0778818 -0.339944 0.447624 7.69875 -12.3487 2.68373
12 1 Ar 2.27461 1.11039 1.22441 -0.136066 1.6738 0.32724 23.0359 -29.8724 31.7328
16 1 Ar 4.29861 0.0863432 16.6569 -0.692431 -0.384205 0.503992 -1.29466 -8.93213 14.6769
93 1 Ar 4.3157 0.108723 0.984294 -1.84105 0.469666 -0.777404 -2.45982 2.27275 -4.82057
1170 1 Ar 4.22384 1.07281 0.360321 -0.808358 1.59642 -0.367082 8.64242 -12.3054 0.475905
457 1 Ar 4.90827 1.26096 1.23806 -0.0700145 0.574599 -0.0445098 -2.83024 -9.02656 -11.9066
14 1 Ar 5.89583 16.1843 1.702 1.33596 -0.012144 -1.2206 20.3588 24.7301 -27.898
460 1 Ar 6.27062 0.0679425 0.788454 -0.220053 -0.736543 -0.137119 22.3429 1.10637 3.16202
375 1 Ar 4.7897 2.31424 1.19899 -0.721486 0.898778 -0.505849 -9.52491 2.98167 -1.09748
64 1 Ar 7.27501 1.88445 0.873375 0.284244 0.734353 -0.427617 2.86325 -13.7703 -6.09353
456 1 Ar 7.18398 0.613153 16.7771 -0.349529 0.337021 0.231129 -1.56299 2.41176 1.67958
780 1 Ar 7.96807 1.13201 0.917045 -0.808755 0.292887 0.303942 14.7783 -9.35672 -1.08453
3619 1 Ar 6.61515 16.4796 16.5107 0.88398 -0.35069 0.399904 15.1849 14.5457 13.0089
57 1 Ar 8.39009 1.47954 16.6711 0.0981065 0.746748 -1.39005 -3.4742 1.87976 -1.52752
24 1 Ar 6.83935 1.67407 1.89035 -0.0361035 0.86287 0.55533 2.03617 -4.14596 -14.9925
384 1 Ar 9.60884 0.330838 0.381572 -1.60577 0.0133938 -0.486279 -11.4857 11.5083 -14.2792
63 1 Ar 10.1115 0.537285 1.24362 1.34243 0.0461704 -1.06014 15.8458 6.36976 1.35456
505 1 Ar 10.4586 1.05222 0.251041 0.213511 0.514039 0.473408 3.41527 -11.179 2.01499
3627 1 Ar 9.46763 1.56156 16.7005 0.751119 -0.891939 -0.0231431 16.2116 -12.4399 53.8528
3625 1 Ar 11.2826 0.489868 0.936737 -0.75197 -0.800695 1.14861 5.2521 14.5033 -9.77236
3991 1 Ar 12.4065 0.732126 16.1436 0.256768 -0.961171 -1.10401 7.86132 -8.55472 -6.02998
473 1 Ar 13.3987 0.932393 1.07016 -1.58773 -0.399493 1.23275 10.468 28.1269 -10.1425
34 1 Ar 12.9203 0.342965 0.219994 1.49751 1.39067 -1.27442 -5.79264 25.4842 4.25985
469 1 Ar 12.0497 1.2065 0.207215 -0.418095 1.47909 -0.442677 3.30141 -29.5852 3.27624
79 1 Ar 15.0682 0.696697 0.752628 -0.129486 -0.3194 -0.0948393 -9.11803 -15.7748 5.38575
35 1 Ar 13.6939 0.626827 2.1411 0.0662116 0.258329 0.441656 9.33437 11.473 -15.5948
800 1 Ar 12.9601 1.607 1.76808 0.0614098 -0.719872 0.946908 7.99392 -5.29923 6.03298
437 1 Ar 15.6531 1.39107 1.38468 -0.769156 -0.747078 0.589406 8.77141 -5.17782 -13.5584
438 1 Ar 16.0286 0.394007 1.06958 0.65032 0.0183148 0.646149 3.16181 1.82251 -5.98922
764 1 Ar 15.408 16.6567 1.81217 -0.0426325 -0.688005 0.913957 -13.8729 -18.0945 -7.69094
442 1 Ar 1.41347 2.69741 0.483924 -1.7485 0.595837 -0.893182 -12.9132 -6.68511 -1.28343
481 1 Ar 0.81212 1.75903 0.39192 0.139093 -0.0933394 -0.147196 -1.93007 -17.872 2.68507
402 1 Ar 0.259521 2.60817 0.519308 1.65894 0.76289 0.708029 4.75934 5.41809 20.5608
84 1 Ar 0.159815 3.14858 16.4632 1.14075 0.481426 -1.09712 -16.0657 -22.7634 -20.6074
523 1 Ar 0.91916 3.54906 0.256049 0.280742 1.01427 -1.75755 -8.40967 19.654 7.11168
46 1 Ar 1.8367 1.81997 0.701947 0.494022 0.506409 -0.293395 5.29797 4.38081 -10.7919
482 1 Ar 3.05155 2.96145 1.6766 -0.784677 -0.385009 -0.638631 3.12192 16.8322 -3.2489
489 1 Ar 3.13667 1.49568 0.466708 0.247263 0.925609 -0.0256433 -8.89974 -2.17817 -12.6161
410 1 Ar 3.22785 0.257564 16.4789 -1.31715 0.0332023 0.392443 1.40057 4.06841 2.39147
413 1 Ar 4.55378 2.03588 0.0306357 -0.285699 -0.317953 0.821519 6.43275 6.06029 1.61025
529 1 Ar 5.51575 2.51899 0.453476 -1.16742 0.335175 0.471027 -30.85 46.5218 -32.5556
454 1 Ar 5.79109 1.88381 1.1001 1.55928 0.638267 0.660968 -0.453326 -43.7112 40.3467
500 1 Ar 5.35237 1.26309 0.235086 0.792718 -0.0781381 0.811646 2.11885 9.00588 -1.94378
3657 1 Ar 6.84109 4.34712 0.761287 -0.849218 0.0809553 0.640687 13.9706 -9.56701 -25.2172
3659 1 Ar 6.15631 1.95124 16.6667 0.327735 -0.403878 -1.29285 5.91662 -4.90442 -10.9454
493 1 Ar 7.43359 2.89265 1.03478 0.373147 0.454846 -0.0907317 25.872 15.6127 5.80822
894 1 Ar 6.51411 2.54545 0.870517 -0.725199 0.508828 -1.71056 -13.9478 16.9238 -26.298
379 1 Ar 9.24139 1.39154 0.908735 0.77434 -0.520043 0.630432 -21.9996 -9.36648 -3.53085
54 1 Ar 8.9598 3.09652 2.52661 -1.11117 0.535796 -0.985158 -3.69482 -15.6207 6.42664
58 1 Ar 8.87412 1.20533 1.95519 0.109613 0.499785 0.38108 0.29914 10.6767 -10.4165
25 1 Ar 10.3978 2.0601 0.465629 -0.196543 -0.581333 0.723837 -9.04223 3.42734 -6.6188
68 1 Ar 9.57563 3.39972 0.863724 -1.23731 2.36844 -0.0354763 -34.2348 49.6608 45.2409
467 1 Ar 10.0759 2.74303 1.52351 -1.14572 0.421214 0.258678 8.11178 1.57582 -1.15137
862 1 Ar 9.11686 2.31887 1.63391 0.25271 0.57447 0.701544 -0.708275 -2.89754 3.32801
108 1 Ar 11.0198 3.18246 2.07014 -0.633092 -1.82137 1.13781 -0.685242 -2.56761 0.386854
466 1 Ar 12.3055 2.39065 1.70353 -0.581931 0.562739 0.423948 -11.9681 -3.30085 -14.1128
912 1 Ar 11.4706 1.8664 0.737116 -0.453777 -0.92432 -1.11853 -11.1856 13.8168 -13.1213
32 1 Ar 10.9873 2.76577 0.926051 -0.899432 0.227664 -0.190554 1.29323 8.63754 9.77801
31 1 Ar 12.1089 2.10023 16.5229 -0.241636 0.541252 0.533078 -13.3323 12.3715 -11.6932
29 1 Ar 12.6138 1.96439 0.648043 -0.304265 -0.750585 -0.0424371 -12.9754 2.43926 13.4541
513 1 Ar 12.9818 2.90063 0.998602 -0.3667 -0.246552 -1.45713 -5.1191 4.53937 -20.5049
71 1 Ar 13.2377 1.3694 0.0141777 -1.08306 -1.35874 1.11387 -18.7487 0.436178 5.43189
3714 1 Ar 13.0702 3.75187 0.35551 0.818538 1.7632 -0.623848 17.66 -8.23642 -3.44085
36 1 Ar 14.7174 1.65424 0.98876 -0.969057 -0.384645 -1.64206 -12.523 -6.61301 7.49424
441 1 Ar 0.0168122 1.77829 1.49575 -0.466986 1.66541 0.519657 1.76849 21.0311 12.4588
3674 1 Ar 14.8607 2.38172 0.284963 1.52737 -0.386719 -1.26341 21.5824 7.98658 2.00883
525 1 Ar 1.68096 4.27363 16.7884 1.36725 -0.192807 1.69909 3.5415 -5.87052 -7.43379
124 1 Ar 0.642135 4.67743 0.463147 1.02874 -0.618465 -0.939881 -5.50069 -15.356 1.52437
524 1 Ar 1.02731 5.53752 1.25454 0.494215 -0.161661 1.11191 -7.88401 -4.16035 2.15482
486 1 Ar 2.13227 3.39113 0.678441 -0.413486 1.06564 -0.129876 7.48844 16.7377 -13.3185
565 1 Ar 2.69563 3.78554 16.647 -0.217465 0.409337 1.26408 -16.7488 -10.1157 -20.615
48 1 Ar 2.73294 2.4661 0.22346 1.22304 0.755315 -0.719152 -19.115 8.47935 -9.11877
893 1 Ar 3.20602 4.71036 1.40824 -0.247667 -0.380657 -0.467494 6.72749 16.7192 2.94405
92 1 Ar 3.28501 3.5265 0.619771 -0.455107 0.824707 -0.758868 10.0097 -3.61759 18.5901
3689 1 Ar 4.81201 3.07729 16.4315 -0.413806 -0.791805 0.7863 3.28575 -6.43461 1.87826
133 1 Ar 4.9276 3.54834 1.6701 -0.823919 -0.452196 0.993244 -27.2049 1.02289 13.4424
129 1 Ar 4.09591 4.36878 0.763892 -1.04148 -0.813227 0.390313 19.5424 -3.2983 29.3707
3692 1 Ar 5.77725 3.36205 1.21172 -0.46856 -0.620546 -0.0480407 24.2862 -11.5473 -21.5357
3731 1 Ar 5.14855 3.94384 0.588998 0.151794 0.131024 -1.12528 10.2254 8.38443 -1.7207
90 1 Ar 6.95397 5.07969 1.389 0.4457 0.655616 0.482255 -2.91898 30.4251 22.5741
136 1 Ar 6.85664 3.54514 1.61608 -0.0832294 -1.21792 0.869876 -8.22177 -0.978676 3.4729
534 1 Ar 7.5188 4.63053 16.4821 0.473802 -0.145615 0.337201 2.01231 1.87435 21.7353
61 1 Ar 8.50344 3.1861 1.24981 1.33258 -0.17776 -0.900276 2.44491 -7.65408 -1.52443
494 1 Ar 9.18657 4.89889 1.59178 -0.273832 0.438195 0.976754 16.6613 1.69264 20.2613
898 1 Ar 7.81875 3.98418 1.34829 -0.192272 0.462835 -0.277234 -3.95131 -0.732613 -7.36253
98 1 Ar 7.02774 2.77187 16.6879 -0.448881 1.18894 -0.0146409 -0.882093 -0.281375 2.1144
102 1 Ar 10.0587 5.24599 16.6804 -0.299576 -0.384853 -0.58784 -5.56332 2.14234 -2.16086
3704 1 Ar 10.4604 4.20113 0.106394 -1.65693 1.05113 -1.16329 -38.044 11.9616 4.41567
112 1 Ar 10.3501 3.79458 1.49264 1.01067 -0.621398 1.1433 1.62573 9.58834 -19.3927
76 1 Ar 11.1261 3.76875 0.702273 0.185859 -0.136778 1.36946 16.0964 -8.73423 1.17488
75 1 Ar 11.8614 3.25998 1.3749 -0.436108 -1.3663 0.877222 -19.4539 -8.43961 -0.526041
3747 1 Ar 12.4405 3.6668 16.2741 -0.289793 -0.593677 1.03357 13.4783 4.62117 15.6513
73 1 Ar 12.1374 4.30963 0.511729 0.937248 -1.50636 0.0664091 -8.55634 0.967157 -10.4671
546 1 Ar 11.3691 4.16094 1.60719 0.122799 0.829312 0.441099 13.5498 11.8109 14.0246
146 1 Ar 13.7755 3.88962 16.1113 -0.937721 0.252189 1.26292 5.08062 -16.6174 21.2375
553 1 Ar 14.3495 2.60187 1.29699 0.300372 1.25223 0.0368419 0.249477 14.1975 -0.826719
114 1 Ar 13.3344 3.8891 2.14863 -0.167117 0.308575 0.0606468 -0.240819 2.53592 1.68636
109 1 Ar 13.6129 2.01675 0.857706 0.648795 -1.58093 1.26981 9.59398 -5.70126 0.142507
153 1 Ar 14.0438 3.87672 1.02029 -0.339382 -0.103744 0.20299 27.14 -44.7578 -4.45299
120 1 Ar 16.4363 3.5286 0.566948 0.896292 0.529626 0.802437 1.5961 -9.33107 3.85664
3683 1 Ar 15.8591 2.50559 1.41935 -0.963627 0.670171 0.199474 -7.76287 -0.389758 -4.14467
81 1 Ar 15.0903 4.46913 0.772025 0.705872 0.188768 0.880005 -3.8713 -0.747792 -5.7874
163 1 Ar 1.4696 4.37458 1.01897 0.368225 0.10354 1.11738 8.43245 -2.97661 13.7091
200 1 Ar 16.6918 5.74261 1.18416 0.0671663 -0.856647 0.653112 2.37673 1.12172 0.91866
3725 1 Ar 1.73185 5.29473 0.160689 -0.218561 1.16944 -0.924662 -36.4247 -10.114 2.91216
522 1 Ar 2.66985 4.60995 0.487934 1.06205 -0.270872 -0.0908312 -10.8837 8.47672 12.1804
157 1 Ar 2.56788 5.78492 0.149326 1.52367 -1.08497 -0.216264 20.1486 25.0336 19.4531
173 1 Ar 2.07122 5.31515 1.28097 -1.38481 0.355742 1.70067 21.8515 -51.3245 -9.40889
3726 1 Ar 1.12922 5.72407 15.9836 -1.34022 -1.06219 0.760462 -4.87373 15.7694 5.80419
3775 1 Ar 4.89682 4.80171 0.0236015 -0.376497 0.092164 0.561871 -9.66505 4.02325 -12.4261
132 1 Ar 3.55766 4.35517 16.7459 0.107775 0.507102 0.800346 -0.353434 8.13117 -31.1765
3772 1 Ar 2.94901 5.93258 1.43626 -1.60654 -0.0475019 -0.562977 -5.39529 -5.22742 -20.6122
3732 1 Ar 3.43889 5.49445 0.606544 -1.58854 0.303478 0.415837 17.4822 -9.3136 0.163008
130 1 Ar 5.89784 5.73298 1.32609 -0.298379 -0.560913 0.595939 21.4965 -23.9839 -15.1678
174 1 Ar 4.50861 5.3449 0.94773 0.11517 1.45734 0.523602 2.07968 8.18386 -13.37
3375 1 Ar 6.16676 6.50383 0.687174 -1.08281 -0.710715 -0.545184 10.114 5.52926 -7.04833
573 1 Ar 6.68596 5.41707 0.221205 -1.06933 1.06652 -0.0859096 -18.4051 0.0141318 -0.673563
974 1 Ar 7.82611 4.83516 1.95459 -1.64245 0.0509941 0.325043 -4.71696 -0.379821 21.5951
977 1 Ar 8.45602 6.08648 1.86899 0.660814 -1.30204 0.180342 -5.90328 1.49231 10.3806
539 1 Ar 9.79217 5.68245 1.12884 1.58993 -0.113429 0.255257 -27.9925 -4.61868 12.6465
544 1 Ar 9.38937 6.16662 0.0266483 -0.402909 -0.321581 1.51702 1.57958 -2.4657 -7.14283
138 1 Ar 11.3141 5.42694 16.4425 0.429074 0.303734 -1.45451 12.3944 -12.284 14.026
145 1 Ar 11.5984 6.42223 16.7789 -0.40282 -0.0396059 -0.484335 -0.919612 8.9591 -15.4134
506 1 Ar 10.643 4.81575 1.23584 -1.29761 0.79187 0.300485 -26.0257 -22.3653 -21.3195
148 1 Ar 10.6473 5.70239 0.640847 2.2295 0.174157 -0.290016 27.5004 7.97373 -17.7183
189 1 Ar 11.6435 5.22952 0.777146 0.792518 -0.46517 0.370655 -0.0621555 -28.6677 -7.63914
950 1 Ar 12.4145 7.22765 0.459094 -1.04115 -0.333965 -0.201109 -0.527272 -1.78395 -0.648611
151 1 Ar 14.0965 4.63983 0.207265 0.583876 -1.26115 -0.375158 8.54176 -6.70032 -8.2372
559 1 Ar 14.556 5.54023 0.724922 0.849495 0.355311 -1.20035 -2.22278 -18.7302 27.7645
117 1 Ar 14.3248 4.75976 1.55536 0.549892 0.311306 -0.121596 5.851 -15.8544 -12.8732
560 1 Ar 14.7361 5.62568 1.81433 -0.195065 -0.524142 -1.06613 12.5874 26.4618 13.0803
155 1 Ar 12.9467 4.61976 16.6174 -0.00298722 -0.994707 1.51226 -3.65118 -3.74721 5.79321
159 1 Ar 15.2799 4.93329 16.519 0.447407 -1.52242 0.45087 -3.04355 8.26095 20.544
561 1 Ar 16.2107 4.79579 0.675853 -0.755671 -1.13432 0.97665 6.55583 4.2906 -10.5664
121 1 Ar 15.607 4.98236 1.60285 0.685319 -0.168503 0.339027 -7.71793 -10.2912 26.8618
602 1 Ar 1.42348 7.83494 0.0650266 0.742251 -0.054659 0.650485 -6.04421 -0.0955861 7.13522
609 1 Ar 1.90185 7.59671 1.35042 0.709089 -0.345808 0.205561 -20.7763 -14.9452 18.8953
922 1 Ar 0.80789 7.6655 1.07844 2.11981 -0.0930086 -0.34933 21.6151 -8.3501 2.57741
564 1 Ar 0.726272 6.59679 0.823051 0.0338418 2.05867 -1.23657 -4.71416 0.502684 32.9519
126 1 Ar 1.56607 6.44478 0.172632 0.0454126 -0.780288 -0.699465 18.4047 -15.2995 0.275151
167 1 Ar 1.51604 8.69346 0.705609 0.143655 -1.42344 0.0587089 16.1772 -20.7047 -11.6657
1010 1 Ar 2.42541 7.00023 0.305266 -0.711514 -1.52714 -0.518618 -4.31257 10.7119 -6.59932
566 1 Ar 3.38433 6.61677 0.391724 0.813536 1.388 1.06338 10.2746 -25.4711 -2.499
620 1 Ar 4.28473 6.01758 16.6915 -0.348374 1.08317 0.477932 15.5186 -7.29382 11.039
3016 1 Ar 4.95252 7.97266 0.380102 -0.0647354 1.00252 -0.648296 0.274116 -12.014 -4.06526
171 1 Ar 4.21122 7.04407 16.5915 0.188969 -0.0716941 0.612053 -0.45323 15.6848 16.5014
3817 1 Ar 5.04788 6.33657 1.02866 -0.185419 1.93667 1.21672 10.3848 -1.28969 4.4357
3774 1 Ar 5.30125 6.86905 0.188742 1.88132 -0.832052 0.793442 -12.0273 18.6345 -4.41924
653 1 Ar 4.3295 7.07645 0.891322 1.34691 0.417418 0.459088 -2.29203 6.55558 -4.22766
3779 1 Ar 6.39415 8.00607 0.950771 -0.263421 0.601443 1.3924 13.6693 0.206442 -7.67076
3780 1 Ar 7.24777 6.50008 0.289675 0.108867 0.168418 -0.323281 -13.5705 -14.1901 18.196
141 1 Ar 8.36797 7.95325 1.16343 -0.259287 0.142255 0.59428 19.3799 0.780787 -8.4806
3740 1 Ar 7.67772 5.45337 0.438921 -0.0415299 -1.02841 0.770757 11.3627 0.893175 -11.2355
585 1 Ar 9.48075 6.50298 1.82717 0.790807 -0.963142 -0.493394 -2.9691 -10.3654 0.664918
219 1 Ar 8.7439 6.0821 0.863619 0.638874 0.139004 -0.493824 10.1438 -18.7899 5.15709
3785 1 Ar 9.05914 7.44042 2.21226 1.47855 0.894624 0.401649 8.30656 0.993388 -12.8228
545 1 Ar 10.5119 6.3359 1.62244 0.342339 1.37842 1.07321 3.75647 1.84662 -10.0808
3836 1 Ar 10.0442 6.65681 0.669176 -0.889936 0.774782 -0.423073 -12.3315 -5.22233 4.3651
183 1 Ar 9.18636 7.17172 1.09831 0.283286 -0.366166 0.542609 -7.20191 9.04789 -9.1153
192 1 Ar 11.5337 6.18631 0.978715 2.04986 1.42629 -0.787061 -13.3845 36.6502 34.3139
229 1 Ar 11.7177 8.09058 0.166391 0.131482 -0.423439 0.228579 13.3473 17.166 30.6401
3757 1 Ar 13.4918 8.34154 16.051 0.0689996 -0.564373 0.631599 -3.36135 5.32056 -22.4218
187 1 Ar 10.9403 7.08004 0.505796 -0.709968 -0.187882 0.239995 13.7013 -5.18859 -13.6883
190 1 Ar 13.4015 5.40094 0.366198 0.280331 -0.0216382 -1.67875 0.300915 25.1256 -4.85975
595 1 Ar 13.3851 7.27535 16.6165 0.597055 -0.711739 -1.08689 4.40409 -12.6336 3.49983
193 1 Ar 13.5888 7.17706 1.30999 -1.85467 -0.0289865 1.08494 18.9008 -6.62899 -21.3055
554 1 Ar 15.5163 6.23466 16.7223 1.47334 -0.182445 0.389322 -6.16222 -1.79672 2.04276
960 1 Ar 15.0104 6.47214 1.06657 -0.288692 0.532159 -0.458539 -23.9232 23.3727 -2.93634
149 1 Ar 14.4581 5.90555 16.6148 -0.743628 0.887239 -1.31547 -0.113062 -1.36799 -27.9677
518 1 Ar 15.6068 5.69692 0.934568 0.593091 0.362554 -0.124211 20.3382 4.34578 -27.5113
158 1 Ar 16.6063 7.44373 1.16536 -1.74999 -0.870011 0.063438 -14.7248 32.0173 2.82909
3790 1 Ar 15.5131 7.56673 0.702963 0.494388 2.49598 -1.18523 4.05547 -37.744 -76.0959
597 1 Ar 15.8374 6.78533 1.64318 0.2984 0.922576 -0.454232 0.922444 3.81864 5.64061
201 1 Ar 0.408545 8.59216 0.920675 0.0259731 -0.595294 -0.49866 48.1017 10.3014 40.417
568 1 Ar 0.0470884 7.87188 2.24145 -0.88107 -0.538042 0.898336 -29.2703 11.4998 -27.9974
207 1 Ar 2.31158 9.26965 1.16518 -1.04146 0.16321 0.324767 5.77999 -4.54698 6.22866
209 1 Ar 2.48354 7.95473 16.5289 1.57614 -0.540225 0.205416 1.31233 -2.00616 -5.48142
170 1 Ar 1.6536 7.17077 16.0915 1.78913 -1.17957 -1.03854 21.1205 -36.904 22.7184
243 1 Ar 3.54442 7.63107 0.381553 0.723799 0.361174 -1.59383 -6.1225 19.2086 0.126337
216 1 Ar 3.63438 7.52045 15.8241 0.776208 -0.0247658 0.314151 -8.73812 5.3933 -5.34355
651 1 Ar 4.5846 8.01958 15.8713 -1.433 0.604737 -0.212523 10.1457 -17.7206 14.0851
297 1 Ar 5.83478 8.96513 0.522195 0.960116 0.0726071 1.31231 3.93307 6.31545 -0.282293
3451 1 Ar 4.98701 9.09388 16.2408 -0.346441 1.23823 0.928617 2.98899 -3.83432 -6.6192
3819 1 Ar 5.99108 8.17352 16.6265 -0.560679 -0.497355 0.358616 -30.9111 59.0911 -7.16719
218 1 Ar 6.98668 8.78493 0.249223 0.290493 -0.592903 1.08776 -33.0142 7.87567 -5.86173
224 1 Ar 7.91096 8.53758 0.470345 0.744853 0.412183 -0.585152 12.7776 9.47732 9.1371
184 1 Ar 8.53518 9.01542 1.23877 0.154365 -1.3989 1.32928 4.98432 -0.654662 -7.17593
223 1 Ar 7.02837 8.81277 15.934 0.727393 0.198437 -0.661186 -6.85614 2.21686 5.24877
586 1 Ar 9.7705 8.41876 1.40797 0.728914 0.612271 0.332575 3.34684 -4.40322 8.01609
625 1 Ar 10.7928 9.07286 1.13524 0.548078 -0.204088 0.513232 -15.8113 -16.4963 -5.50722
3787 1 Ar 9.89495 8.73977 0.411692 1.01069 -0.96133 0.512426 3.52715 11.6256 1.11438
3796 1 Ar 11.4427 9.82783 1.0466 0.610493 1.63597 2.33808 27.4139 11.4693 -7.51447
669 1 Ar 11.2046 9.14901 0.132515 -1.19321 1.00567 0.63422 -10.2653 10.3035 18.6864
186 1 Ar 10.7313 8.07457 0.631024 0.588046 -0.89207 0.29972 -2.58285 11.4102 8.94717
195 1 Ar 12.4036 9.6556 0.251598 -0.11773 0.122484 -0.312411 -2.38791 -1.66235 -3.11428
197 1 Ar 13.6758 8.99371 0.481324 -0.030891 0.442434 0.501198 -22.3987 17.1749 8.68928
636 1 Ar 12.9723 8.61581 1.46182 -0.0816702 -0.431701 0.159792 11.5662 -6.01077 4.58862
3831 1 Ar 14.5385 8.98699 16.7744 -0.6391 0.177591 -0.225697 22.9244 -1.23997 -9.04366
3753 1 Ar 14.561 7.80105 15.9591 0.12174 -0.602628 -1.35446 0.801873 3.25569 0.0300005
237 1 Ar 13.9101 8.15383 1.09983 0.0759859 -1.3481 -0.573657 -5.99936 13.3264 11.4399
3798 1 Ar 14.6863 7.49324 1.28794 -0.0626183 -0.632842 -0.640093 -8.67573 -9.69355 12.2363
603 1 Ar 15.7133 7.93429 1.53773 -0.522559 0.183758 -0.0128268 11.6164 28.2435 71.9988
3439 1 Ar 14.9493 8.4962 0.924597 -0.397319 -0.00453668 -0.838347 -3.78786 0.451974 -3.04045
3808 1 Ar 16.5117 8.43844 0.304573 0.859689 0.553594 0.653042 -57.9553 4.26343 -35.9799
279 1 Ar 16.6935 9.50362 0.685559 0.180181 1.07493 -0.115965 15.9323 -18.5243 3.81971
717 1 Ar 0.801109 9.25724 0.117165 0.697493 -0.568446 -1.2364 -0.386349 -3.9583 5.05323
641 1 Ar 0.348577 9.46894 2.0805 -1.08968 0.432772 -0.361472 -10.9901 -20.6994 15.6633
608 1 Ar 1.03815 9.36684 1.2527 -0.483664 -0.292229 1.78021 0.0964822 0.413754 6.77297
612 1 Ar 2.58656 8.06646 0.811736 -0.0364851 -0.327561 -0.878414 18.8454 13.3404 -17.1261
647 1 Ar 2.41368 10.3374 16.6361 -0.0120368 -0.729011 -0.630182 7.38971 -27.2206 3.28052
649 1 Ar 3.88438 9.69891 0.277466 -1.0053 -1.06539 -0.0548838 -29.4972 -24.26 -18.2543
3816 1 Ar 4.13662 9.84956 16.0882 -0.622842 -1.20665 0.200355 53.6927 20.764 -19.6549
3856 1 Ar 3.51055 10.791 16.5877 0.0313467 1.17444 -1.12863 -6.51248 -0.472831 -0.378233
291 1 Ar 3.25512 9.49364 16.2056 2.39023 -0.302664 -1.24237 -48.0926 -18.1807 4.84532
689 1 Ar 4.45661 10.5377 0.254129 0.11993 1.39681 -0.220671 4.89699 47.5647 -27.375
217 1 Ar 5.1927 9.83273 0.252607 -0.907373 0.598345 -0.48137 13.1874 -2.67008 14.3188
655 1 Ar 6.14296 10.3975 0.00832798 -0.0145012 0.267134 -0.236848 1.56997 12.7244 -27.7938
253 1 Ar 8.17656 9.62759 2.00633 -0.944027 -1.14816 -0.965779 9.65485 21.6535 -0.90546
3815 1 Ar 5.3694 9.60785 15.2218 0.103141 0.466836 -0.039225 -19.6438 6.2325 -2.23119
258 1 Ar 7.02638 10.0121 0.579234 -1.58751 0.303136 -1.87545 -3.67719 -7.04892 8.14891
665 1 Ar 8.14885 10.0259 0.826156 -0.238292 0.622096 0.247365 5.17025 -4.26924 3.33875
668 1 Ar 8.87694 10.722 1.43746 -2.65695 -0.430703 1.14714 5.73442 -1.85357 -2.02771
222 1 Ar 9.57892 10.1579 0.641465 -0.943359 -0.277857 0.519277 1.87842 -0.315011 13.32
626 1 Ar 9.996 11.1783 1.15365 0.117216 0.835411 -1.31236 -2.37001 -7.1802 0.568898
672 1 Ar 10.604 10.1026 0.409032 1.19639 -1.09434 -1.70231 5.81356 -6.04179 -21.024
996 1 Ar 12.1257 10.7286 0.518764 0.20823 0.443383 0.598957 -5.65333 -11.1888 -11.1885
227 1 Ar 11.8132 9.94567 16.0706 0.867497 -1.00566 1.19837 -1.86012 -9.94951 9.64248
267 1 Ar 10.9705 10.6247 16.3671 1.08485 0.0869907 0.988225 -3.46628 6.36536 -6.61745
194 1 Ar 14.4532 10.022 0.293152 0.229764 -0.306838 0.292548 -4.03124 3.66124 -4.90476
273 1 Ar 13.4112 10.0324 16.7408 0.477533 0.437683 -1.36506 -13.5122 6.4066 10.7293
353 1 Ar 13.9554 9.38033 1.45017 -0.159034 -0.332652 -0.70221 -22.0913 -54.9078 24.2827
3835 1 Ar 12.8868 10.9441 16.3473 -0.0559501 -0.344974 0.423781 33.2274 -5.00725 6.86085
311 1 Ar 13.8595 11.5379 1.89266 -0.765779 -0.11767 -0.58912 2.43204 -3.65527 -3.63473
3435 1 Ar 14.242 10.7513 16.0748 0.902928 -0.758041 -0.445745 -11.5631 -6.02075 -5.92258
199 1 Ar 16.521 10.4493 0.980147 0.731153 -2.33669 -0.203531 -3.79764 12.6145 -5.31089
3795 1 Ar 15.4004 10.3688 0.68888 0.527677 0.446877 0.370433 13.3071 -40.793 -12.65
277 1 Ar 15.6671 9.21058 0.588152 0.885687 1.33524 0.425882 0.804037 0.977464 -8.86589
720 1 Ar 14.8736 9.60279 1.20377 -0.432972 -0.112102 -0.490095 25.3865 7.08863 -5.17949
212 1 Ar 1.24648 10.9607 1.14626 0.921796 1.76017 -1.87075 12.3981 16.7549 18.7457
687 1 Ar 16.6914 11.0903 1.79905 -0.63371 0.0644618 1.53128 6.36349 -5.34457 9.78326
685 1 Ar 1.5732 11.9584 1.44809 -1.15773 -0.357169 -0.605995 17.3247 -0.0186953 15.5016
241 1 Ar 0.586144 11.828 1.41512 -0.523736 0.782897 -0.354118 -21.7998 0.266959 -1.73579
245 1 Ar 2.99084 12.2859 0.460135 0.999941 0.650541 0.459208 -3.1381 -6.53028 -2.41322
696 1 Ar 4.24354 10.9327 15.8527 0.153618 -0.435974 -1.04897 8.93579 2.32289 -4.01829
249 1 Ar 4.26308 11.6933 0.0346057 1.27606 0.615563 -0.822852 -6.24799 2.50296 -8.69781
3893 1 Ar 3.27827 12.0467 16.2404 -1.06936 -1.02923 -0.574577 3.84518 -16.5901 7.4924
1089 1 Ar 5.15962 12.3319 0.819757 -0.852021 -0.420829 -0.698245 -2.9861 -2.38982 4.23987
250 1 Ar 5.22266 11.2417 16.4862 0.179383 -2.3412 1.20313 -17.8135 -24.4283 -1.88184
3895 1 Ar 5.49866 11.2646 0.678949 0.714472 -0.694162 -0.818754 10.615 -0.44378 2.93168
3860 1 Ar 5.26728 10.1406 16.0975 -1.27774 1.6641 0.761314 -3.8548 15.3061 -2.99015
294 1 Ar 6.52819 11.5065 0.309389 -0.678482 -0.105085 0.384753 -7.23273 -2.55624 -0.632853
257 1 Ar 7.53703 11.8223 0.0329521 0.277455 -2.36629 0.316817 0.694498 -8.78555 2.75227
293 1 Ar 7.67896 10.7198 0.159898 -0.286509 0.625713 1.53862 4.93234 17.5408 -4.1263
3904 1 Ar 7.50662 10.7026 1.47113 -0.180091 -1.27234 -0.051843 -0.192584 1.58885 -1.38776
3867 1 Ar 8.21271 11.3999 0.907182 0.51806 0.902324 0.304224 -6.62254 -2.26589 -18.5946
232 1 Ar 9.13198 11.3317 0.368183 -0.979013 -0.470772 -0.694744 12.3447 -4.324 4.87047
3823 1 Ar 9.80858 10.6404 16.37 -0.470025 -1.34765 1.59401 15.3608 31.4609 34.4532
300 1 Ar 8.48867 11.3394 16.3281 0.423311 -1.12192 -1.16752 -4.46887 1.51893 -3.4507
309 1 Ar 11.1605 10.9346 0.869113 -1.15126 -0.76289 -0.937492 -8.28048 8.47106 -1.0094
3866 1 Ar 11.9309 11.8048 0.308348 0.0426687 -0.0391032 -0.300218 -13.92 -18.5735 8.48503
270 1 Ar 12.9614 11.1159 0.948391 0.775193 0.0105021 0.0773394 11.57 -0.27256 8.98188
3949 1 Ar 14.1183 11.9943 16.5791 1.16828 -0.44724 -1.343 -14.0499 -7.90039 15.1643
351 1 Ar 12.7173 12.1759 0.906431 1.38659 -0.889812 0.273463 0.619494 4.19731 8.05661
671 1 Ar 13.7678 10.9803 0.176372 0.981494 -0.129983 -1.83556 -1.15391 8.37062 4.17662
670 1 Ar 14.4501 12.6751 1.56774 0.04737 0.127373 1.13997 15.8536 -15.8833 6.49412
3876 1 Ar 15.0385 12.1913 0.740372 -0.176406 0.180055 -0.13822 -2.02838 -2.49535 3.94665
315 1 Ar 15.4805 11.1968 1.20389 0.227853 -0.0272401 0.287569 2.86873 37.9008 5.11245
319 1 Ar 16.2251 12.015 1.61714 0.736381 -0.300994 -0.235808 9.01009 1.91117 -7.50762
318 1 Ar 16.0354 12.4665 0.333691 -0.816477 0.144768 1.05536 -3.63979 -4.26191 -2.72809
275 1 Ar 16.0851 11.1767 0.237863 -0.928491 0.42223 1.33578 4.503 -6.14686 21.6545
692 1 Ar 1.97069 13.2701 1.65917 -1.21973 0.786644 0.0216133 14.65 1.09209 -5.55591
321 1 Ar 0.0805151 12.8143 1.44085 -0.454196 -0.00157502 0.262454 16.3429 11.7988 -23.7446
288 1 Ar 1.19945 12.8274 1.01355 0.425927 -0.879257 -1.34516 -3.23565 9.31323 -5.84756
766 1 Ar 2.63144 13.2825 0.0495246 0.770438 0.0245904 0.187444 -10.0536 -27.1869 -1.5366
3892 1 Ar 2.90763 12.7586 1.41001 0.440811 0.190668 -1.11532 -1.5564 -11.7259 8.5826
3925 1 Ar 2.77279 13.7021 0.999023 -0.116861 0.87519 -0.620399 -17.2563 2.92716 3.55421
1090 1 Ar 3.93992 12.3951 1.14313 0.186633 -0.916882 -0.107911 10.8568 -31.2449 -9.10686
1456 1 Ar 4.69429 13.5979 0.932357 0.503649 -0.339757 0.598848 -23.6645 -32.4691 15.6349
690 1 Ar 3.8294 13.0653 1.87861 -0.711235 0.681028 1.33751 -24.1122 31.2338 8.80182
729 1 Ar 4.66372 12.8252 16.7731 0.592467 1.67429 0.00494793 -56.1799 -16.9603 35.8421
3967 1 Ar 3.84737 12.8958 16.109 0.740055 1.31205 1.76206 -0.169994 20.7154 -0.716228
332 1 Ar 5.57217 13.2169 1.41855 -1.38252 0.799998 2.09438 0.622203 -20.5185 -2.61449
3900 1 Ar 6.88141 13.1512 0.805576 1.55659 -0.516876 -0.660937 -6.94652 -7.17067 1.84948
700 1 Ar 6.72718 13.0934 1.96158 0.0380323 0.838274 -0.67683 -7.52405 1.33681 -1.28208
1094 1 Ar 5.60887 13.0241 0.168141 -0.712267 0.152366 0.615889 46.2331 -8.52397 35.1845
295 1 Ar 8.69735 13.1355 0.168116 -1.05114 0.774623 -1.48991 9.35724 -0.247004 -2.04299
302 1 Ar 7.85707 12.6944 0.662881 -0.0170751 -0.43129 0.665652 -19.6749 -1.66883 -13.3218
662 1 Ar 8.73134 12.5124 1.12288 0.668136 1.03356 -2.85262 20.6906 -4.37773 12.9406
707 1 Ar 9.94592 12.6486 0.74824 0.375245 0.0539921 -0.129221 0.813682 -20.9723 -9.58881
705 1 Ar 11.936 12.9059 2.1741 0.0217327 -0.704336 0.00305626 -1.29907 1.73808 4.68069
305 1 Ar 8.59639 14.1532 0.466793 -1.97456 -1.25028 -0.406744 22.9058 -16.6466 23.7007
749 1 Ar 10.6864 13.0283 1.53998 -0.0304824 -0.149787 -0.656478 3.38781 6.81195 6.28244
3512 1 Ar 10.657 12.0399 1.25666 -0.0800085 0.0978323 -0.422229 2.50618 -13.7294 0.288151
385 1 Ar 12.0856 12.8351 0.174203 -0.0416118 -0.398551 1.14587 23.4058 -9.01662 2.05416
354 1 Ar 13.2513 12.8324 0.253251 0.262298 -0.200158 1.40535 -10.1954 -1.74559 -6.49006
316 1 Ar 12.8384 13.5166 2.18433 -0.571577 -0.438479 -1.23363 -5.07393 0.499468 0.617144
3912 1 Ar 13.3969 13.8723 0.499374 -0.0470269 -0.652099 0.307845 7.45145 -2.36861 2.2639
3959 1 Ar 14.2506 13.0599 0.332755 -0.804111 -0.166535 -0.00264649 -3.03456 -6.70562 -7.29833
393 1 Ar 14.2702 13.6384 1.20349 -1.55605 0.549366 2.05093 18.2973 40.0558 0.92143
39 1 Ar 14.868 14.485 0.759328 -0.636826 -1.44697 0.060107 -20.2177 -24.5648 23.6102
278 1 Ar 15.0071 12.5538 16.5114 -0.782768 -0.911735 0.466396 7.7126 -2.07988 5.42671
3515 1 Ar 14.0153 12.9197 16.0869 0.149515 0.246055 0.323211 3.18919 -20.5372 -2.61653
317 1 Ar 16.358 13.4642 0.571936 1.31472 1.68179 -0.163661 -3.11026 -4.70329 7.44411
3924 1 Ar 15.6877 13.5232 16.5282 -0.524272 -0.373449 0.0815483 4.78206 3.52246 6.5222
677 1 Ar 0.568813 13.8255 2.60068 1.04852 0.667693 -0.525446 10.8252 -17.218 9.2604
368 1 Ar 0.485429 13.9543 0.484964 -0.527776 2.55476 -0.903142 10.4588 3.30947 -1.79193
325 1 Ar 0.646994 15.7289 1.6122 0.592844 -0.666864 0.209384 7.44181 -2.64232 17.3587
362 1 Ar 1.57042 14.8833 0.357937 0.107026 -0.0288033 -0.964365 1.79906 -10.2254 15.6678
686 1 Ar 3.58545 13.1879 0.644483 0.179655 0.329878 0.643497 10.1947 16.5052 -19.4082
367 1 Ar 3.15728 14.0799 1.90853 0.250722 -0.697519 0.215922 10.337 -0.458009 2.59461
361 1 Ar 1.83963 13.773 0.46057 0.0529021 0.856623 1.39483 1.00879 22.5981 24.648
17 1 Ar 3.25065 15.2396 1.03332 -0.10898 0.92175 -0.79311 -12.8606 8.30341 -6.95711
762 1 Ar 3.57937 14.3231 0.864954 0.796676 0.715111 -0.999889 12.3743 -26.2209 -14.0622
773 1 Ar 4.35059 13.9288 0.0604894 1.27974 0.13034 1.21672 -13.5978 8.15028 -23.0558
3575 1 Ar 6.10108 14.9017 1.7449 -0.313645 -0.883584 -0.683144 -5.19321 14.6845 -7.28505
740 1 Ar 5.37033 15.981 0.649752 1.30126 1.38424 0.872492 2.35608 -2.09023 7.52346
3977 1 Ar 5.75352 14.956 0.763993 0.835882 -0.785896 0.775711 6.16974 -1.62193 -8.77802
3580 1 Ar 5.28277 14.222 1.4272 1.14116 0.13941 1.60702 8.21815 26.1616 13.6127
733 1 Ar 7.01429 14.9674 1.06547 -0.36519 0.60675 -0.965675 -17.1006 -27.3492 12.7248
694 1 Ar 6.2914 13.9568 1.22159 -1.32595 -0.230108 0.0500659 6.97671 4.7972 4.80898
747 1 Ar 9.50568 13.4947 1.07054 0.0500473 -1.10538 -0.189634 -7.59954 18.5096 5.55936
337 1 Ar 8.40822 14.9145 1.26371 1.72238 -1.74745 -0.586092 6.46333 -7.316 6.98068
3940 1 Ar 7.6001 13.8933 1.14244 -1.04676 1.16842 -1.15936 -2.47472 12.5067 -30.7553
342 1 Ar 9.82895 14.486 0.605023 -0.079424 0.238013 0.689247 -4.99234 -14.1812 4.12141
788 1 Ar 10.3945 15.143 1.22634 -0.04963 1.01497 0.197 1.18191 7.86614 -0.022
3951 1 Ar 11.2488 15.446 1.9645 -0.696974 0.982714 -0.350483 -15.6633 -6.1795 -1.71601
345 1 Ar 12.2509 15.9779 2.41488 -0.567465 0.162677 -0.275815 -1.73534 -1.59011 3.59736
350 1 Ar 11.6486 13.968 0.526974 -0.0262669 -0.112222 1.07245 2.61169 -20.1477 -24.9086
790 1 Ar 12.8289 14.5406 1.63853 0.446714 0.754798 -1.08462 -8.53459 0.218027 -10.0765
387 1 Ar 12.5379 13.4341 0.932122 -0.164754 -0.0872534 -0.433125 7.95875 1.83206 3.47317
355 1 Ar 12.2026 14.8074 2.53893 -0.28392 -0.831333 0.11214 -4.21921 -5.2335 -7.48302
3633 1 Ar 12.1456 15.3926 1.49915 0.913601 0.020553 0.527692 23.8499 5.41448 -2.29502
681 1 Ar 13.7098 14.7767 0.925103 1.01285 0.24335 0.286345 0.3716 0.2446 -1.02327
282 1 Ar 0.43246 14.9469 0.952272 -0.512282 -0.259771 1.10598 6.6442 -19.323 4.4695
398 1 Ar 0.53392 14.9107 16.5712 -0.802599 -0.176134 0.48317 -11.083 5.98174 9.71877
357 1 Ar 15.9944 14.4483 0.83832 0.721318 0.0548617 0.571609 -2.88404 3.5588 -0.039657
758 1 Ar 0.29828 14.0013 1.59343 -0.436757 -1.50169 0.978194 -6.23207 -7.91398 -11.8885
722 1 Ar 15.8155 15.5756 1.15569 -0.464117 -0.351053 0.349828 10.5572 -1.913 9.74797