ITEM: TIMESTEP
7500
ITEM: NUMBER OF ATOMS
4000
ITEM: BOX BOUNDS pp pp pp
0.0000000000000000e+00 1.6795961913825074e+01
0.0000000000000000e+00 1.6795961913825074e+01
0.0000000000000000e+00 1.6795961913825074e+01
ITEM: ATOMS id type element x y z vx vy vz fx fy fz
446 1 Ar 1.53609 0.853332 1.33362 -0.21 1.44517 -0.278302 -7.11477 7.40748 -14.6109
3966 1 Ar 0.636777 0.540148 0.220242 -0.860829 -0.542154 -0.354319 1.75192 -22.0259 11.0989
439 1 Ar 0.381275 1.02865 1.2939 -0.558708 -0.803612 1.178 12.7545 4.74296 -5.40474
91 1 Ar 2.24198 0.69006 0.501316 1.20983 -0.54689 -0.612181 1.96138 17.7375 -14.6817
12 1 Ar 2.30788 0.53238 1.9783 -0.0542875 0.0518006 0.799588 -1.44922 -2.56295 13.4195
761 1 Ar 3.5197 0.40311 0.636688 -0.0152088 0.395334 0.0768697 -22.4573 -12.8797 29.3778
93 1 Ar 4.44404 0.477268 1.32591 0.632842 -0.719598 1.78084 -6.79942 -15.0912 -10.4832
1170 1 Ar 4.34414 0.985098 0.422445 0.5952 -1.54152 1.21947 12.4058 44.8144 -4.64549
811 1 Ar 3.66082 1.63438 1.09249 1.46077 0.211314 -1.14787 2.78981 -10.8101 4.67496
457 1 Ar 5.10409 1.32806 1.39345 -0.539389 0.226964 -0.465935 -4.15645 -1.15189 6.8412
500 1 Ar 5.40342 1.68557 0.445867 -0.584888 -0.480139 -1.22248 -0.369788 1.56967 -6.63102
3975 1 Ar 5.31333 0.466076 0.604087 0.0816731 1.74099 0.587495 9.72094 3.86225 2.4038
460 1 Ar 6.9523 0.656175 0.950878 0.296965 -0.142348 -0.183277 -8.19011 -0.249841 -27.1711
334 1 Ar 7.711 1.428 1.5001 0.0292403 -0.688447 0.0418227 -3.81014 7.68955 0.214744
95 1 Ar 6.75486 1.58342 0.40936 1.9458 0.566245 0.698958 -4.53423 -2.31067 15.7952
780 1 Ar 7.9549 0.775507 0.698132 -0.236964 -0.121583 0.145568 10.1216 -0.617348 -23.1913
383 1 Ar 9.11089 0.414172 1.03171 -0.399309 1.82066 -0.0282429 -4.97745 2.93393 -2.88141
384 1 Ar 9.34778 0.081558 0.00314936 0.141188 0.675731 0.565962 0.424064 7.9432 -2.11897
63 1 Ar 10.8595 1.09883 1.58151 1.05262 0.533762 1.35379 8.56686 24.7187 -15.0212
505 1 Ar 10.2205 0.716431 0.232574 -0.918324 0.909914 0.0647616 -11.9718 -7.7357 11.0606
379 1 Ar 9.8734 1.4449 1.39848 -1.04365 0.579643 0.191886 7.30886 -28.2258 -6.85748
23 1 Ar 10.2872 16.608 16.3035 -0.00589235 0.383899 0.152532 3.1043 13.2624 8.61605
3625 1 Ar 10.8568 16.795 0.590323 0.404019 -0.159247 -0.628908 -7.08203 -9.46882 -13.2206
469 1 Ar 12.1385 1.69723 0.570555 -0.987429 -0.687532 0.39077 12.8423 -6.55927 15.103
474 1 Ar 11.9823 0.554045 1.16718 0.165057 0.719369 -0.808223 4.22508 -3.27717 11.337
473 1 Ar 12.9267 0.769968 1.6589 -0.311387 -0.610043 0.481785 0.277127 -31.7025 -0.100041
34 1 Ar 13.5132 16.337 0.464786 -0.691234 -0.534337 1.17205 21.645 29.352 -11.6559
71 1 Ar 13.4995 1.6545 0.543923 -0.306491 1.21623 0.465324 -26.1111 -21.8017 0.406578
79 1 Ar 14.9135 0.72748 0.986755 1.34624 0.452931 0.285418 -14.9976 10.4105 -12.7207
33 1 Ar 13.8211 0.635332 0.555695 -0.0465588 -0.607275 0.470349 37.7122 -9.69753 1.58443
434 1 Ar 0.0599129 1.37551 0.220364 0.62705 0.680301 0.696395 -23.0591 9.03835 10.804
437 1 Ar 16.2116 1.44611 1.19609 0.557114 1.35838 0.607657 -8.20072 6.14979 -20.6086
438 1 Ar 16.3911 0.376559 0.704361 -0.310465 -1.25414 1.12298 1.22554 2.48132 0.14908
83 1 Ar 15.7975 1.23616 0.157708 -0.39552 1.40449 -0.448081 -10.1881 -4.89153 2.37379
442 1 Ar 1.24554 2.54325 0.643934 0.412907 1.09552 0.605609 27.2092 13.3568 -15.4346
481 1 Ar 1.05505 1.49754 0.424055 -0.120059 -0.468393 0.339978 18.2889 2.10365 4.96169
402 1 Ar 0.465205 3.02718 0.173322 -0.750977 0.855282 1.36194 -17.9563 5.23246 -0.890031
485 1 Ar 0.690202 2.92653 1.61811 -0.187684 -0.252599 0.569222 -4.62634 13.3851 2.52965
487 1 Ar 2.48577 1.87304 1.58617 -0.286461 1.07701 -0.102055 -10.6382 17.6397 -21.7637
46 1 Ar 2.36786 1.78291 0.370516 0.615747 -1.42278 0.691876 -15.9389 -14.941 21.198
48 1 Ar 2.31318 2.86944 0.598774 0.964387 0.187849 0.503006 12.5691 -24.4323 24.0584
489 1 Ar 3.35928 1.88459 0.0399569 -0.301592 -0.872958 0.29609 13.4529 -4.05214 2.49146
413 1 Ar 4.382 2.22757 0.144169 0.381663 -0.859608 0.115208 1.50233 2.34164 2.31422
1134 1 Ar 3.41591 2.63802 0.91351 0.224577 0.0180689 0.75131 -0.225551 4.48693 5.61975
375 1 Ar 4.4531 2.75565 1.41588 -1.85502 0.428773 -0.295348 -15.0357 -10.0552 22.8149
529 1 Ar 5.21279 2.83214 0.76089 0.435534 2.15736 -1.41661 16.2067 4.00391 -18.5541
454 1 Ar 6.07864 2.49593 1.35862 -0.823752 0.377127 -0.893666 -7.09724 4.53738 0.461832
64 1 Ar 7.59016 2.22175 0.794247 1.49039 0.305972 -0.218432 10.3688 -0.227877 -2.50519
493 1 Ar 7.04486 2.67801 1.73117 1.25711 -0.653155 0.313761 24.0396 7.91858 -23.7146
894 1 Ar 6.78802 2.86812 0.573958 1.2985 -0.440976 1.48516 -7.18484 -2.426 -1.51974
3701 1 Ar 8.55064 1.96215 16.7968 0.0875759 -0.965027 1.43389 -20.9136 6.68129 4.11047
25 1 Ar 10.2468 2.28263 0.389253 0.0162898 1.20756 -0.536559 -8.39536 -3.46311 -36.1516
432 1 Ar 10.3168 2.30372 2.01085 1.25551 -0.366254 -1.50004 5.39695 4.01679 -3.86256
97 1 Ar 9.58867 2.37498 1.13639 -1.01195 0.365543 2.30952 -20.8827 30.2448 -13.2713
106 1 Ar 10.3826 3.10912 1.03741 -0.342038 0.179831 0.0444321 6.0174 8.25457 2.82503
912 1 Ar 11.0951 2.1424 0.85043 -0.416366 1.42297 0.260109 25.9928 0.586021 46.7315
32 1 Ar 11.1597 3.6833 1.60027 -0.0574257 0.992416 0.850546 -1.15125 6.21304 4.77982
29 1 Ar 11.9912 1.4926 1.66749 -0.0706023 0.634505 -0.708963 2.0635 -11.2181 -2.55611
513 1 Ar 13.2235 2.62563 0.997404 0.495689 0.387582 0.26124 -17.0365 13.9167 -14.6459
109 1 Ar 12.9842 1.73785 1.48631 -2.04439 0.125271 -0.974684 4.73961 24.6534 -11.9739
36 1 Ar 14.9892 1.86311 1.3683 -0.125682 1.47105 1.03668 1.14128 -10.1418 4.98806
3674 1 Ar 15.1846 2.50063 0.545963 0.776188 -0.764091 -0.88441 13.5029 -6.20727 -10.314
553 1 Ar 14.8717 2.99413 1.53927 -0.245756 -0.297432 1.13809 -11.3726 3.65562 -1.44637
3716 1 Ar 14.2126 2.29004 0.79279 -0.476264 0.40909 -0.526766 11.5675 18.5959 -5.05046
441 1 Ar 0.32199 2.17787 0.882723 -1.54522 0.740864 -0.197868 -34.5891 0.44527 -4.56408
3683 1 Ar 15.6862 2.49074 1.93601 0.0343156 -0.0415765 -0.979825 13.556 -5.12601 0.306955
42 1 Ar 16.1867 2.21211 0.315988 0.131123 0.0826564 0.0385559 3.4184 9.93241 -3.14033
523 1 Ar 0.991421 3.69675 0.774537 1.65352 -0.596557 0.578445 -15.2702 10.6943 -19.5028
163 1 Ar 1.67157 4.50559 0.914326 0.760323 0.760458 -0.80002 21.1398 0.174164 18.9423
558 1 Ar 0.597282 4.62578 1.24545 0.706398 0.79274 0.328937 0.298081 4.38621 -0.70914
525 1 Ar 1.886 4.31304 16.4594 -1.58282 -1.07262 0.158418 5.47732 15.8801 -10.6546
486 1 Ar 2.62062 3.76736 0.229702 0.849611 -0.443277 -0.069872 16.2472 20.8025 2.96372
452 1 Ar 2.49901 4.18926 1.60623 -0.267778 -0.173534 -0.344817 8.09713 12.6779 -29.4956
92 1 Ar 3.47387 3.74981 1.42027 0.64311 0.851318 0.958201 16.6721 16.4712 -8.93901
129 1 Ar 4.50008 4.6 0.773232 -0.531455 1.59029 -0.474774 22.5051 -4.23921 12.6601
530 1 Ar 4.26614 3.48799 0.714612 0.849811 0.182738 0.284819 3.91904 2.75488 -1.96313
3692 1 Ar 6.11454 3.67602 1.18702 1.58646 -0.711973 -1.31332 18.7694 -35.3932 -15.4892
3731 1 Ar 5.31823 4.05724 0.312722 -0.0469176 -0.410974 0.459024 -62.5142 -40.2992 -4.41827
3657 1 Ar 7.03366 3.86827 0.347388 -0.419958 -1.0617 0.840681 -0.0518427 8.18747 2.19209
490 1 Ar 6.17728 3.45903 16.5676 0.593936 -0.787616 0.335268 -7.54612 6.56258 18.7743
3653 1 Ar 5.55562 4.47072 1.243 0.238274 0.194942 0.374111 -20.8557 39.6978 10.7331
3695 1 Ar 8.37752 2.95674 0.39269 2.82357 -0.300511 -0.0664654 1.33104 6.47195 -28.1229
61 1 Ar 8.48363 2.77292 1.35339 1.58759 -0.802983 1.25859 11.8351 -0.800422 22.778
898 1 Ar 7.78284 3.57806 1.01384 0.160509 -0.666106 -1.47034 -0.444642 -10.3991 20.4171
100 1 Ar 9.36033 3.50224 0.923106 -0.25703 -0.0728686 0.171517 -22.9283 -19.2888 5.80554
68 1 Ar 9.95128 4.19903 1.50854 0.0501137 0.259868 -0.222301 3.77301 4.43794 3.09879
3704 1 Ar 10.4964 5.06394 0.0935659 0.984835 0.357675 -0.597126 12.5797 -7.82684 -8.65192
112 1 Ar 10.5298 3.822 2.42627 0.777623 -0.88589 0.032665 -6.16326 2.59352 6.94484
94 1 Ar 9.8743 5.1099 0.939511 -0.781173 0.610599 0.672375 16.2189 -6.92762 2.98968
76 1 Ar 10.8677 3.97945 0.059136 0.347019 -0.38367 0.564186 13.2778 3.40938 -1.78064
75 1 Ar 11.8167 3.2071 2.36193 -0.0155821 -1.18366 1.3278 21.5278 -3.2453 -12.9657
73 1 Ar 11.7152 3.38192 0.794992 -0.531442 -0.76976 1.54925 10.2246 30.9807 -9.43448
67 1 Ar 12.0352 2.594 1.2882 -1.8458 0.988969 -1.32946 15.9392 -26.3286 17.2715
3714 1 Ar 13.8215 3.5213 1.13654 -0.0974642 1.17119 1.2301 20.0641 0.376452 -2.9504
509 1 Ar 12.8584 3.64424 1.44246 0.149885 -0.390212 1.31792 -6.12415 -9.39766 -5.65667
153 1 Ar 14.2424 4.06599 2.10199 -0.361721 -0.413827 -1.05057 30.9118 -16.4059 -22.8004
81 1 Ar 15.1967 4.33963 1.16651 -0.431509 0.423079 1.19439 -3.63789 -0.833915 4.3316
962 1 Ar 15.8015 3.94515 2.07719 0.848776 0.780788 0.0136724 7.48075 -3.67151 -14.543
120 1 Ar 0.013595 3.70695 1.1997 -1.18498 0.644661 0.730014 5.4019 -6.17639 6.19665
480 1 Ar 16.5124 3.11806 2.01291 -0.657612 0.341222 1.73813 -9.81762 -26.8309 -0.926627
115 1 Ar 15.9563 3.07941 1.06775 1.04448 -0.0939232 0.994386 -5.01933 1.90264 -5.4693
124 1 Ar 1.01267 4.60922 0.168209 -0.628798 0.2226 -1.61298 -6.6309 15.5854 3.8352
524 1 Ar 1.18579 5.60297 1.55105 0.869717 1.68498 -0.568698 -18.1495 -22.7564 5.24425
123 1 Ar 0.619884 5.71257 0.35222 0.094569 1.00499 0.321004 -6.41809 14.9219 -9.42061
3725 1 Ar 1.56325 5.54806 0.555111 -0.669626 0.492985 -0.732355 38.027 -3.91717 0.498019
522 1 Ar 2.7698 4.98257 0.273307 1.37131 0.0979741 -0.0216335 -12.9368 -0.964863 -0.285285
157 1 Ar 2.59605 6.04306 0.673839 -0.343399 0.63047 -1.19042 -7.25357 -6.07716 -1.54972
173 1 Ar 2.35548 5.2211 1.49293 -0.680887 -0.822548 0.396297 -16.2475 15.726 -33.1289
3772 1 Ar 3.17488 5.81256 1.73824 -0.629268 0.513961 2.122 1.55436 0.644379 13.7086
893 1 Ar 3.4705 4.85416 1.35368 -0.737564 0.321651 -0.600366 -21.2306 -9.63513 -3.29252
3732 1 Ar 3.76477 5.23777 0.476617 0.237161 1.56426 -1.86894 -7.35276 31.538 -8.31385
174 1 Ar 5.38273 5.16978 0.408487 0.761675 0.0465347 -0.562537 -15.3439 0.281434 6.85799
3775 1 Ar 5.31975 4.76481 16.2275 0.855778 1.94616 -0.317364 20.0083 -10.7749 -4.08222
130 1 Ar 5.75378 5.83026 1.27558 -0.824261 -0.0562887 0.100772 -17.9437 -24.6611 -3.83721
3296 1 Ar 6.15503 4.48593 0.251918 -0.309823 1.12016 0.51954 62.9411 29.2232 -3.01901
3727 1 Ar 5.96697 5.88728 16.178 1.20777 -1.0205 0.723045 -24.9897 -4.82107 2.77696
90 1 Ar 6.52866 5.10714 1.28988 -0.776012 0.718239 -0.627991 0.509295 -13.0088 3.78675
573 1 Ar 6.32337 5.63889 0.360143 -2.15957 -0.347038 -1.39332 2.36418 8.06216 -1.55503
3735 1 Ar 7.2296 5.82692 0.937335 -0.0835166 -1.12427 -0.355641 4.39209 2.63556 19.1008
3740 1 Ar 8.14114 5.21056 0.413544 1.04366 -0.647625 -2.146 65.8226 17.4187 3.40364
219 1 Ar 9.06141 5.7011 0.884121 0.122051 -1.52006 0.0536069 -9.96135 18.1189 -9.55284
538 1 Ar 8.87691 4.75984 1.25958 -1.19018 0.66398 -2.05765 1.32322 -16.704 1.64676
140 1 Ar 9.03635 4.76813 16.6059 0.157857 0.351566 -1.38351 -3.55884 3.94885 2.85884
539 1 Ar 10.8183 5.66399 1.6275 0.808309 -0.367061 0.0268382 -3.26549 6.62467 -0.613788
506 1 Ar 10.9749 4.66912 0.991711 0.733298 -0.335657 -0.92203 -11.9548 -12.8508 5.80341
148 1 Ar 11.2775 5.61618 0.713559 -0.217409 0.4209 -0.310814 8.9993 4.452 -8.6705
189 1 Ar 12.0013 4.39557 1.04458 1.17022 -1.66663 0.45762 0.731388 7.18615 -20.0392
190 1 Ar 13.2249 5.33083 0.182377 -0.955062 -0.143338 0.598259 4.87368 16.1061 -2.58437
156 1 Ar 12.5844 5.41056 1.08107 0.319199 -0.285204 -0.259101 -32.0069 23.942 -40.5882
989 1 Ar 12.0592 6.21688 0.335043 -0.136436 -1.2648 -1.83121 2.15032 -3.70039 1.99338
596 1 Ar 13.0071 4.78615 1.67993 -0.235604 0.171477 -0.0297141 27.0132 -26.6481 21.5987
196 1 Ar 13.6012 5.69366 1.14674 -0.24433 1.32569 0.808243 -24.2574 19.0951 -21.4142
151 1 Ar 14.1078 4.72663 0.945079 0.980027 -0.139188 0.702705 -3.7183 -27.9083 -13.7113
559 1 Ar 14.5911 5.68324 0.925873 0.745948 0.592357 0.580832 20.0824 8.17347 6.77061
200 1 Ar 0.131596 5.64648 1.3836 -0.699254 -0.681244 -0.0114824 8.69746 -8.58353 6.77826
561 1 Ar 16.2528 4.56495 1.03815 -2.21051 0.828655 0.526994 4.94717 -20.7455 -11.6724
518 1 Ar 15.6554 5.36021 1.1829 -1.23412 0.768062 0.0342946 -5.83679 24.4882 19.4589
564 1 Ar 0.785994 6.5812 1.06858 0.253274 -0.526698 0.65002 -8.96104 -15.1183 5.61688
3803 1 Ar 16.7081 7.80613 16.5362 0.239942 -0.271334 -1.11721 4.59365 -3.33849 -10.093
609 1 Ar 2.8217 7.0972 1.54469 0.181343 -1.03806 2.06579 14.6706 -0.763877 -1.74275
126 1 Ar 1.53125 6.70956 0.239264 -0.0736052 0.837158 -0.109149 3.49867 -5.37456 -2.32083
1010 1 Ar 2.69507 7.04141 0.172749 0.78299 0.729708 0.413182 -8.45289 -15.2338 16.6783
210 1 Ar 2.59498 6.57544 2.39785 0.0468151 0.286258 -0.997839 -4.53201 -8.01941 13.9685
211 1 Ar 3.48946 6.45802 1.01023 0.896572 -0.00539373 -1.54541 18.6931 13.8043 -11.3965
566 1 Ar 4.06443 6.14597 0.114752 -0.492422 0.554253 0.499233 23.03 4.87985 5.94032
653 1 Ar 4.6321 6.74019 0.784287 -0.723435 0.706995 -0.302533 -27.4275 9.90283 18.166
178 1 Ar 4.268 5.70644 1.30057 -0.543069 0.0354024 0.55576 3.27114 0.31251 3.78371
3817 1 Ar 5.33913 6.20891 0.288675 -1.66013 0.504823 -0.401057 12.7236 -14.1879 -11.9731
3774 1 Ar 5.14813 7.0783 16.4664 0.888755 -1.35979 1.63849 14.7306 7.45493 1.3627
621 1 Ar 5.55359 7.15057 0.649624 1.12116 -0.012023 -0.236063 18.3732 18.9577 8.04102
3375 1 Ar 6.39174 6.56054 1.06679 -0.829428 -0.961715 -0.183612 31.4485 0.317027 -18.3953
3780 1 Ar 7.26666 7.06498 16.0809 0.79567 0.546163 -0.907318 0.859465 9.15493 29.9719
613 1 Ar 7.42178 6.86678 1.65699 0.428173 -0.854221 1.06991 -2.05335 -0.00566505 -5.22036
3859 1 Ar 7.68868 7.12627 0.55057 1.06703 1.59532 1.20815 -7.38568 3.27943 3.15622
215 1 Ar 8.18785 6.23848 0.656088 -1.60518 -0.0923541 0.350021 4.95407 -1.24591 6.67885
544 1 Ar 9.99801 6.24025 0.846408 0.123019 0.0760125 0.703483 5.70678 1.00698 3.64365
3836 1 Ar 11.2306 6.74173 0.867424 1.87252 0.580885 -1.49808 -30.5187 -24.7056 -20.0093
183 1 Ar 9.14346 6.96431 0.848967 -0.20193 0.176159 -0.185484 10.276 -9.97255 -8.03129
623 1 Ar 10.1148 7.82495 1.32946 -0.331408 -0.583243 0.211767 5.47889 -4.28828 1.25786
192 1 Ar 12.0222 6.26014 1.49714 0.157416 -0.605902 -1.083 -19.9103 1.68499 -4.63008
187 1 Ar 11.5616 7.06587 16.389 -1.55447 0.0416055 -0.360567 -26.9173 -6.04532 3.20066
588 1 Ar 11.2887 8.09648 1.75813 -1.36602 0.318162 -0.0914914 0.343751 -10.2343 -6.98404
950 1 Ar 12.5215 7.05115 16.7323 -0.306799 0.359521 1.35251 10.3928 -2.36898 -1.65982
193 1 Ar 14.7257 6.7598 0.227524 -0.922397 -1.20144 -1.33792 2.78136 3.81508 6.85785
993 1 Ar 13.018 6.54914 1.21074 1.4514 0.44737 -0.380675 -0.363042 5.76203 -22.5944
960 1 Ar 15.3259 6.48663 1.27225 0.694369 0.568918 -1.41071 -31.3603 5.31351 1.81841
3798 1 Ar 14.9894 7.49034 1.1637 0.509355 0.0479395 -0.936491 -0.138936 9.03673 -8.61321
557 1 Ar 13.6025 6.85994 0.355241 1.55117 -0.879852 -0.511061 -0.203611 9.32744 -6.62358
590 1 Ar 15.3194 6.75134 16.0926 1.50736 -1.94889 -0.966189 3.00104 6.37987 3.46769
158 1 Ar 16.7039 7.74932 0.758274 -0.955582 -0.822518 -0.165061 -17.7308 -1.67071 23.7166
605 1 Ar 16.2359 6.26511 0.984639 -0.535313 -1.23402 0.263304 28.5021 -7.61036 -1.16567
602 1 Ar 1.96775 7.58205 16.4486 0.104944 -0.712464 -1.23485 -11.7505 18.3819 9.58001
922 1 Ar 0.882772 7.50327 0.631985 0.682859 -0.256931 -0.959315 17.9615 10.9286 -8.04946
201 1 Ar 0.596576 7.47293 1.77004 1.11061 -0.322372 -0.162906 22.3147 31.1059 -21.4119
167 1 Ar 2.11643 7.64282 1.07569 -0.73343 -1.14374 1.42419 -16.0937 13.1013 -12.4545
612 1 Ar 2.87498 8.10235 0.148891 -0.419811 0.372421 -1.09253 -15.1269 -6.4387 19.5399
243 1 Ar 3.71274 7.2931 0.215688 0.622546 2.7623 -0.0517803 9.34787 3.91954 2.63013
652 1 Ar 3.7304 8.48445 0.658274 -0.293777 -0.026165 -1.40027 32.3804 2.10754 -26.3535
3016 1 Ar 4.71086 7.96823 0.638536 -0.516133 -1.38917 0.221503 4.68008 -18.5942 11.0857
297 1 Ar 5.55134 8.96332 0.675395 -0.789168 0.21195 0.748317 0.70904 4.80257 -4.5578
569 1 Ar 5.00175 7.56515 1.57139 -1.73912 0.0558463 -0.276296 13.4727 -8.10468 2.77521
220 1 Ar 5.89863 8.07106 1.09098 -1.01231 -0.48825 -1.06084 -5.38473 -2.71344 4.91787
1414 1 Ar 4.92261 9.75623 0.357929 0.0550388 0.192686 -0.697748 -5.05009 1.04746 5.63583
3779 1 Ar 6.71355 7.70003 0.503179 1.18965 -0.192464 -1.10575 4.34682 9.11371 2.94931
218 1 Ar 6.68613 8.89921 16.7798 0.101533 1.23405 -0.780794 5.23369 -7.50735 11.2916
141 1 Ar 8.47778 7.475 1.39836 2.13939 -0.615743 -0.941169 -16.3987 10.4411 12.6856
224 1 Ar 7.73358 8.12698 0.287621 -0.298144 0.352117 0.163085 -7.58936 15.5525 -5.29049
184 1 Ar 9.4039 8.83993 1.54217 0.122798 -0.444251 0.232588 -17.75 -23.6658 16.4107
586 1 Ar 10.4905 8.73613 1.91042 0.0966397 1.07688 0.686356 -11.8307 -0.505911 -5.35971
3787 1 Ar 9.90887 9.59088 1.15029 -0.505618 -0.136964 1.38071 22.6585 19.8371 -31.3948
3739 1 Ar 9.31351 8.12666 0.742385 -0.63766 -0.234133 0.211308 2.79116 3.09162 1.44828
229 1 Ar 12.0077 8.1351 0.113274 -0.806556 -0.528339 -1.21644 -2.66521 -33.4481 -54.4791
625 1 Ar 11.3187 9.24587 2.37365 -1.40086 0.0884662 0.699198 -2.27479 9.95131 -0.896444
186 1 Ar 10.8915 8.23725 0.728089 -0.164299 -2.10497 -0.13175 6.82891 -4.14524 -3.84948
152 1 Ar 11.9803 8.4933 0.999114 -0.014356 0.248864 -0.418275 -4.01828 4.52702 28.4149
197 1 Ar 13.5351 8.76741 0.157164 0.786177 0.933331 0.154028 2.30916 -1.69803 9.09472
636 1 Ar 13.1265 8.58215 1.27672 -0.929302 -0.788033 0.396975 -15.9698 -4.13097 -1.76644
231 1 Ar 12.8857 7.75006 0.586886 -0.33251 0.132081 0.434443 8.72127 10.7146 12.7813
237 1 Ar 13.9428 7.88978 0.740782 -0.0883745 -1.26149 -0.715613 -3.48478 -4.76309 5.87259
3439 1 Ar 14.7277 8.6228 0.704394 1.41837 -0.258264 0.747033 23.6153 -1.99996 -11.4165
3395 1 Ar 14.6993 7.83108 16.7747 -0.28443 0.765027 -0.150076 2.13798 -2.79417 -11.7503
3790 1 Ar 15.8216 7.04048 0.469039 1.08875 -0.133 0.24789 -6.68252 13.6383 -11.8438
3808 1 Ar 16.7493 8.73839 0.333868 0.826926 0.132516 -0.0617008 4.80831 3.09118 8.95732
164 1 Ar 0.171523 8.53443 1.73569 -0.730077 -0.701894 0.246387 -6.34812 -6.50889 -5.34511
717 1 Ar 1.95456 8.65992 0.199075 -0.107373 -0.366311 0.146752 -6.68917 -2.77558 1.61402
608 1 Ar 1.01504 8.65134 0.917229 0.680611 0.551134 0.462579 4.79424 -18.1556 17.0692
207 1 Ar 2.13105 8.82371 1.33045 0.854801 -0.546446 -0.179538 8.38145 6.7153 -4.22454
206 1 Ar 1.81054 9.69707 0.695881 -0.868042 -0.93125 1.23622 5.66165 -0.276058 4.00545
204 1 Ar 2.88518 9.1412 0.451484 -0.112539 0.325849 1.41608 2.65943 -9.64896 34.4921
649 1 Ar 4.00884 9.32222 0.0254477 -0.0466934 -0.580736 1.07935 -4.54754 -4.30506 0.758712
689 1 Ar 3.87318 10.862 0.0446567 -0.563146 -0.0339301 0.401831 3.14826 -6.38778 8.61823
1082 1 Ar 2.64263 9.95663 1.48143 -0.917198 -0.377067 0.843012 10.8388 -34.554 18.944
1049 1 Ar 3.49578 9.26222 1.35074 0.0661806 -0.711176 -0.294198 -3.07005 8.79141 2.57351
638 1 Ar 3.94228 10.1284 0.864762 -0.443778 -0.787963 0.703361 -0.204019 0.859128 -2.31015
217 1 Ar 4.9165 10.8594 0.502446 -1.22165 0.795548 0.337407 7.87838 -18.8143 -4.21395
1020 1 Ar 5.75397 8.86766 1.96474 1.74701 -0.28911 0.546234 -8.44028 -14.9839 -4.03648
175 1 Ar 5.50937 10.0555 1.26754 0.405643 -0.18801 0.533642 -1.61389 -5.97943 1.80257
1051 1 Ar 4.61182 10.6803 1.5336 0.528787 -0.359966 -0.734175 25.1743 -14.5406 -3.78001
258 1 Ar 6.75277 10.0964 0.401859 -0.0502006 0.927354 -0.56856 80.2218 -35.939 18.7701
3904 1 Ar 7.46876 10.8017 0.600699 1.87339 0.240332 0.0858614 12.9981 7.27256 3.46646
628 1 Ar 7.41133 9.08933 0.83303 0.75695 -0.130863 -0.0220848 33.7396 4.93193 -19.8239
665 1 Ar 8.19191 9.94807 0.446428 -0.0605307 -0.579577 0.759607 -14.6076 8.3838 -15.8247
3784 1 Ar 8.56802 8.84913 0.377437 -0.38128 -1.39844 1.78486 7.15784 1.58381 4.27084
222 1 Ar 9.30244 9.78628 0.255399 -0.693424 0.155225 -0.228686 1.67792 -2.29394 -12.0557
672 1 Ar 10.6849 10.6163 0.519641 0.557077 -0.235582 -1.22284 8.35389 -55.8479 28.3593
303 1 Ar 10.9161 10.0878 1.65053 0.0987206 0.0166443 -1.28033 -6.98974 0.00157215 8.61233
3796 1 Ar 12.0156 10.0451 2.16341 0.331783 -1.30072 0.655516 1.29779 9.33447 -4.44009
669 1 Ar 11.0252 9.27661 0.955195 0.122494 -0.0609952 -0.332656 1.90624 -0.322293 -2.25762
195 1 Ar 12.4716 9.07578 0.102128 -0.268913 -0.635781 -0.104533 -0.627896 5.78986 4.85182
271 1 Ar 12.7102 9.67077 0.931109 -0.0824315 2.56148 -0.971159 1.77706 6.85907 5.25679
1072 1 Ar 13.6793 11.0644 0.891444 -1.44654 -0.630531 0.193274 13.8713 -3.54526 19.1059
194 1 Ar 14.4752 9.50048 16.7565 -0.0972075 -0.480734 -0.500417 -11.1718 -3.90502 1.23935
353 1 Ar 14.0501 9.01234 1.32343 1.2315 -1.67754 -1.30438 5.89051 -24.5959 25.4199
720 1 Ar 14.8957 9.81142 1.09127 -0.672544 -0.0694363 0.428259 2.67434 -5.70042 3.73386
279 1 Ar 0.812212 9.42427 0.313767 -1.33215 0.500067 -0.246454 -15.237 4.45503 -6.17723
199 1 Ar 0.0112032 9.53479 1.20105 -0.643859 0.605155 -0.420451 1.85048 -4.98587 -1.18986
3795 1 Ar 15.3992 9.98047 0.093701 -1.08754 0.972431 -0.942899 5.83543 11.2675 -0.835229
277 1 Ar 16.5236 9.86911 0.154107 0.236 -1.71732 -0.229407 -9.57751 -24.0913 -6.64752
212 1 Ar 1.27978 10.7513 0.74976 0.63125 -0.0136606 0.339495 -15.0701 7.67781 1.43042
241 1 Ar 0.971196 11.8102 0.908226 0.177268 0.648689 -0.338696 9.40902 3.38099 -11.0498
3887 1 Ar 0.914415 11.4373 16.6161 0.240925 1.35261 -0.0431851 11.3519 19.4359 3.61745
3888 1 Ar 1.30775 10.1862 16.6701 -0.785776 2.16976 -0.620483 -3.02106 12.3025 -18.9583
685 1 Ar 2.00182 11.6492 1.20613 1.30012 -1.24969 0.198161 -0.0973583 6.99177 14.7766
247 1 Ar 2.28094 10.6943 0.952119 0.103641 -1.84138 0.746592 -31.9267 4.68001 -14.8117
287 1 Ar 2.88617 10.9642 1.7265 -0.625849 -1.90147 0.657806 22.5528 -1.02003 -7.4187
3879 1 Ar 1.28111 12.6097 0.0345731 -1.14312 -0.688656 0.173676 -2.82623 -12.2352 6.80566
648 1 Ar 3.00683 11.24 0.533365 0.513021 -0.167965 -0.848164 8.18151 17.7185 -8.83984
1056 1 Ar 4.22706 11.5533 0.766653 1.11006 0.535658 -1.45154 57.9597 -29.7119 -14.0874
3895 1 Ar 5.65751 11.5212 0.173951 1.12041 -1.02146 0.639893 6.7122 15.808 -15.7182
294 1 Ar 6.54638 10.6784 16.3466 0.0684175 0.390511 -0.564423 4.26833 11.22 5.07642
257 1 Ar 6.61678 11.7045 15.6287 0.970772 1.08844 1.27076 30.6304 -20.1195 -18.7343
650 1 Ar 6.15916 12.3504 0.691957 0.159209 -0.39438 1.25708 -16.6371 -5.47045 11.7201
1059 1 Ar 6.21519 11.0146 0.829492 -0.190319 -0.170267 1.34444 19.5066 2.10685 32.9807
259 1 Ar 7.02659 11.7293 0.891744 1.60091 -0.479357 -0.746992 -4.16484 -18.2919 3.33802
668 1 Ar 9.2896 10.8205 0.65587 0.346403 -0.623437 -0.295329 -1.72722 0.414675 11.1708
293 1 Ar 7.60117 10.2304 16.4473 -1.00373 -0.900128 0.0830725 -11.2691 17.4589 -11.2255
3867 1 Ar 8.59718 10.8649 16.6037 -0.541768 -0.276762 -0.000862477 -2.188 -0.364259 -0.0543068
232 1 Ar 9.68468 11.6242 0.00215809 1.0872 0.139233 -0.40888 -3.89899 7.31278 -4.90473
626 1 Ar 10.7421 11.1965 1.38274 -1.27256 0.51743 -1.20723 -7.65484 3.95324 -1.33075
3512 1 Ar 11.6049 11.7449 1.11763 -0.0225034 -0.102023 2.7037 -9.12335 0.555111 -10.3196
3832 1 Ar 10.7553 11.4919 0.141072 -2.28529 -1.81831 -1.81529 -7.69527 66.3227 -2.19589
996 1 Ar 13.7941 9.89668 1.05672 0.766215 -0.0406724 1.2453 -20.4811 37.8836 -24.7741
309 1 Ar 11.6393 10.6117 1.08082 -0.107822 0.164846 -0.247187 11.0176 4.02348 -2.10576
3866 1 Ar 11.8278 11.2955 0.0673601 -0.496909 0.848837 -0.0652198 0.829543 22.4251 12.1772
270 1 Ar 12.7048 10.9078 0.691133 0.709954 0.881111 1.0626 -22.0739 -2.34615 -8.86059
351 1 Ar 12.5854 12.0264 0.709618 0.933495 0.494165 -1.03805 -15.6528 -10.715 10.6832
671 1 Ar 14.5115 10.5836 0.44426 0.711677 -1.89431 0.0469332 8.83093 -3.19303 -4.27089
3876 1 Ar 15.0373 11.9968 1.47327 -0.446414 0.869681 -2.0749 -4.69382 40.8458 -3.37123
1033 1 Ar 14.9656 11.0435 1.36329 -0.0835133 -0.357533 -0.176632 1.42853 -41.2786 8.07884
360 1 Ar 13.7501 12.1914 1.11129 0.376342 0.0774029 -0.341731 -12.0312 -3.69212 -0.634514
3875 1 Ar 14.4825 11.652 0.487639 2.0913 -1.45004 1.21923 2.86855 8.70998 3.75031
315 1 Ar 15.9958 10.2277 1.00645 0.351154 0.81667 -0.0115695 -11.577 0.254821 8.11924
275 1 Ar 15.4628 11.2632 0.538574 0.575119 -0.23804 -0.805092 18.2256 6.58244 3.06386
321 1 Ar 0.110823 12.1263 1.42435 0.240146 -0.24644 0.57166 -6.77908 -0.206631 4.03342
288 1 Ar 0.701421 12.8697 0.916656 0.250891 0.915416 -0.399341 -1.89053 21.5006 16.1638
726 1 Ar 0.239777 12.3115 0.225882 0.219677 -0.210529 0.473615 -14.4041 -20.1548 -7.03205
245 1 Ar 2.18084 12.1502 0.315632 -1.35251 0.0623523 1.0059 -0.0113301 -2.02617 3.414
766 1 Ar 2.19972 13.1947 16.2934 0.540624 -1.28501 0.0424061 8.51928 -9.74533 7.16023
3892 1 Ar 2.76083 12.7574 1.27815 -1.10593 -0.657892 -0.311206 0.816125 -4.5956 -2.43592
3925 1 Ar 2.49275 13.7309 0.786426 0.672407 0.219656 -0.460551 5.80662 -11.0936 2.02389
1090 1 Ar 3.48732 11.9667 1.13008 -0.292903 -1.49861 0.759126 -79.3967 46.5494 32.8439
686 1 Ar 3.02867 12.7371 0.134313 -0.383201 -0.659014 -0.242963 5.65752 10.397 5.16204
1089 1 Ar 4.9069 12.4254 0.72958 -0.025925 0.360832 0.0385337 -6.0125 8.31982 2.55255
1456 1 Ar 4.68821 13.5146 0.487971 -0.155946 -0.36286 -1.97904 0.665505 4.55727 -9.41011
729 1 Ar 4.26043 12.742 16.5997 -0.11698 -0.910726 0.465013 -0.543085 10.7042 -0.72063
332 1 Ar 5.61649 13.228 1.26773 0.709281 -0.0249082 -0.476282 -1.04387 -3.34522 8.12153
1094 1 Ar 6.28185 13.4124 0.511949 -0.280149 0.160548 -0.0358091 4.88226 -2.52359 30.3755
3900 1 Ar 7.17356 12.6258 0.489794 -1.82824 0.662258 0.524902 42.277 67.3121 30.4932
3937 1 Ar 8.17998 13.3185 16.7181 -0.828157 0.908515 -0.834285 -4.71733 -7.85536 -7.85216
295 1 Ar 8.71321 12.2054 15.8476 0.999319 0.496649 0.602863 5.91596 -0.582377 -0.879626
302 1 Ar 8.13907 12.1385 16.7579 -1.25952 0.27935 0.917303 -4.59394 0.135561 5.29701
662 1 Ar 9.08638 12.4185 0.492958 -0.591006 -0.03213 1.03506 7.98034 16.372 -9.28632
707 1 Ar 10.2802 12.5237 0.594305 0.99483 -1.00559 -2.21059 9.35107 8.72406 -18.9684
749 1 Ar 10.9381 13.1911 1.12876 -1.05289 -1.88238 0.741872 12.6279 10.5266 0.0465701
747 1 Ar 9.60841 13.2466 1.1251 -0.56409 0.121148 0.577829 -9.27585 -8.49694 -5.24794
346 1 Ar 10.7435 13.4863 0.14349 -0.703997 -0.905689 0.385208 -2.51145 -1.3598 -11.7999
385 1 Ar 12.084 12.6542 16.4301 0.856575 -0.518865 0.658932 57.9599 1.07402 33.8311
3392 1 Ar 11.4166 12.3583 0.300559 -0.259008 -0.975141 -0.840251 -23.291 -0.766522 11.9376
306 1 Ar 11.6981 12.6122 1.74483 1.5309 2.41636 -0.800369 2.78398 -8.71104 -4.32456
354 1 Ar 13.1825 12.7541 0.346622 0.212693 -1.25384 -0.0261815 9.63561 13.4382 -11.1037
387 1 Ar 12.0381 13.1011 0.83522 2.25602 1.92963 -0.785054 3.81441 -3.73838 -1.05439
391 1 Ar 12.7893 12.836 1.60514 -0.139477 -0.115046 1.33073 -6.26438 -18.9251 -12.6068
3959 1 Ar 14.4291 12.8686 0.699037 -0.792833 0.341622 1.23123 8.25803 7.38651 -4.05573
393 1 Ar 14.3346 13.3471 2.76353 -0.780448 -1.0822 -0.357544 -0.388039 -10.9735 -42.1337
684 1 Ar 14.6995 13.377 1.62229 1.72324 -0.893572 0.293968 4.4557 -0.460426 -0.0387862
318 1 Ar 15.5549 12.4723 0.58592 0.883139 0.722572 0.879755 -8.03258 -7.95024 15.6412
317 1 Ar 16.3624 13.0102 0.91509 0.153198 0.894639 0.697409 15.5888 13.0871 1.33993
3884 1 Ar 15.9136 12.501 1.75385 0.735002 -1.34006 -1.05795 -8.86661 0.863167 -3.61688
368 1 Ar 0.364501 13.7492 0.363307 1.40834 -0.114007 0.19881 18.8913 -1.07402 21.5349
282 1 Ar 0.796632 14.677 0.977858 -0.264997 0.138483 -1.94555 32.8688 -13.5943 -26.1973
362 1 Ar 1.37229 14.7713 16.7307 -0.260698 -0.621561 -0.46335 0.41809 -5.12637 5.50881
361 1 Ar 1.43243 13.6437 0.524448 -0.604876 -0.866426 -0.393029 2.78369 4.96955 -21.8675
3 1 Ar 1.88148 14.5365 1.07333 -1.01531 -2.10843 -0.410833 -3.79378 10.267 -0.91608
371 1 Ar 2.47033 14.6375 0.169967 0.129375 0.192755 2.19352 9.04345 -7.88179 -3.79044
762 1 Ar 4.18682 14.379 1.09944 1.56544 0.572906 0.633763 -13.2337 -6.20114 -24.5173
773 1 Ar 4.19782 13.8875 16.3455 -0.4791 0.0225115 -0.169416 -1.38931 -20.4069 14.5845
736 1 Ar 5.2458 14.5135 0.455723 -0.0526879 -0.203335 0.751847 -10.7566 5.87241 -10.0496
3977 1 Ar 5.50859 15.4366 1.67542 0.344808 0.403777 -0.393414 6.45316 -2.28203 5.57042
3580 1 Ar 5.12185 14.3157 1.42056 -0.359691 1.36096 0.849756 34.5755 0.333531 7.65573
333 1 Ar 6.1622 14.2815 16.7233 -0.456118 -0.308918 -1.26543 56.9257 18.493 8.15707
733 1 Ar 6.92503 15.8393 0.97396 -1.08259 -0.98774 -0.0978987 13.9725 -7.64524 -10.748
694 1 Ar 6.21497 14.3223 1.04641 0.52646 -1.98058 -0.162286 3.48574 0.244849 9.03336
3940 1 Ar 7.38169 14.8517 1.18326 0.604372 0.805137 0.674586 3.55749 -6.98612 38.4667
296 1 Ar 7.19974 13.8539 0.159698 0.674801 -0.843241 0.61527 -18.504 -32.9973 -12.6552
305 1 Ar 8.20548 12.8404 0.942962 -0.382019 -0.144039 0.229652 -15.2255 9.76322 -37.7645
337 1 Ar 8.3868 14.9767 1.41847 0.885537 0.983341 0.329862 8.78813 -5.47538 17.8929
3944 1 Ar 9.59629 16.0177 1.61759 -0.229086 1.07842 -0.0129409 -1.43134 4.85814 7.68651
342 1 Ar 9.16878 15.0342 0.719727 1.112 0.575428 0.098408 -7.13052 10.4543 -23.8032
788 1 Ar 10.1792 15.2318 0.946944 1.32033 0.550114 0.739929 12.7258 -33.1188 7.89165
746 1 Ar 10.0158 14.1882 0.702422 -0.411548 0.406449 1.15426 0.0735102 -2.30175 -13.135
350 1 Ar 11.9533 14.0235 0.308881 -0.802286 0.770033 1.8039 -25.4787 -7.33099 -1.79229
381 1 Ar 10.8884 14.5647 0.0590726 -0.142207 -0.599282 0.540882 1.17879 2.21003 -0.177613
352 1 Ar 11.0183 14.3281 1.11597 -0.287601 0.903451 -0.306227 5.01745 -0.161553 -0.351834
3912 1 Ar 14.041 13.9654 0.845484 0.662913 -0.211358 -0.937839 44.7588 -6.8164 -13.9829
3591 1 Ar 13.1282 13.6796 0.920099 -0.0980776 0.659913 1.15057 -45.0801 -19.618 6.99674
39 1 Ar 14.8314 14.7041 1.29645 0.823132 0.707689 -0.070758 5.97234 -4.05973 0.131504
681 1 Ar 13.819 14.9641 0.644612 -0.22961 1.48674 -1.09772 -7.02492 -0.471331 -4.1965
357 1 Ar 16.0874 14.4536 0.954263 -0.590541 0.0597501 0.16264 1.58755 2.19563 -8.27709
798 1 Ar 0.90733 16.7443 1.08557 -0.895619 -0.459399 -0.17016 15.5657 10.1766 8.32164
3640 1 Ar 0.363021 16.3395 16.6662 -0.562251 1.17264 -0.710182 -11.8545 -14.1888 19.1995
765 1 Ar 0.0724153 16.1759 0.976892 -0.0192822 0.475152 1.14007 -13.288 -10.7113 -5.16475
49 1 Ar 2.23629 16.7431 1.17271 0.215368 -0.499074 0.0495598 -0.515352 -33.5945 -9.71075