ITEM: TIMESTEP
7600
ITEM: NUMBER OF ATOMS
4000
ITEM: BOX BOUNDS pp pp pp
0.0000000000000000e+00 1.6795961913825074e+01
0.0000000000000000e+00 1.6795961913825074e+01
0.0000000000000000e+00 1.6795961913825074e+01
ITEM: ATOMS id type element x y z vx vy vz fx fy fz
446 1 Ar 1.48892 1.11861 1.13426 -0.125764 -0.254069 0.80757 1.65033 -2.05145 -1.38996
3966 1 Ar 0.515139 0.568161 0.397652 -0.232754 -1.74708 -0.0614137 9.30162 7.64342 5.47954
439 1 Ar 0.380872 1.2497 1.16407 0.141157 -0.746517 0.905171 30.0572 3.43718 22.6074
91 1 Ar 2.54427 0.713929 0.448766 0.0279172 0.127407 -0.0104997 4.05968 -1.75392 -10.0695
12 1 Ar 2.46684 0.533971 1.46917 0.113675 1.32379 0.368604 -0.404892 8.02746 18.2195
761 1 Ar 3.35999 0.00408643 0.93312 -0.96419 -1.83352 1.39528 -20.9721 13.4024 2.82092
93 1 Ar 4.05948 0.753589 1.39513 -1.44973 -0.500648 0.701824 5.56337 -19.6679 -0.44323
1170 1 Ar 4.63404 1.19204 0.498842 -0.159408 -0.316623 -1.62982 -8.42301 -21.0425 -7.21513
811 1 Ar 3.98268 1.71932 1.07198 0.242984 0.261172 -0.801969 -1.14633 22.5269 26.673
457 1 Ar 5.16619 1.44587 1.62835 0.724759 0.410905 1.33101 -33.3467 6.0849 15.5191
500 1 Ar 5.44689 1.76517 0.61812 -0.132564 1.66254 0.694283 10.3423 7.98955 -15.7391
3975 1 Ar 5.73023 0.475233 0.392158 -0.773166 -1.87104 -0.955262 -8.84847 -10.0889 10.0983
460 1 Ar 6.81129 0.541476 1.10724 0.384075 -1.43989 -1.55145 5.78499 16.6575 -26.4106
334 1 Ar 7.6661 1.23831 1.4961 -0.405136 1.77293 0.487955 -0.863718 1.62376 -1.63534
95 1 Ar 6.93835 1.81577 0.836292 -0.649624 1.64116 1.44458 -2.07264 -3.93103 -0.47227
780 1 Ar 8.20065 0.933718 0.634144 -0.673039 0.563883 1.43076 -0.569212 -7.78577 -10.9518
383 1 Ar 9.08445 0.685311 1.23594 -0.966121 -0.683582 -1.06109 9.81141 -13.9168 -4.28813
384 1 Ar 9.08661 0.215273 0.215607 -0.738363 0.40387 -0.879332 38.045 75.8229 -66.3424
63 1 Ar 10.756 1.40609 2.11014 0.19401 0.484009 1.01813 -10.2175 -6.6133 -1.72711
505 1 Ar 9.92547 0.785155 0.251808 0.184286 0.471955 0.030379 32.1037 -10.9685 6.38114
379 1 Ar 9.94807 1.55233 1.09674 -0.747402 -0.780444 0.954384 -15.947 -14.3758 13.9919
23 1 Ar 10.3274 16.5634 16.3288 -0.0844478 0.835882 -0.407124 -13.4837 0.0321048 13.9199
3625 1 Ar 10.9411 0.168247 0.387234 -0.256568 1.19007 -0.909265 -8.2478 2.66514 27.7311
469 1 Ar 12.3546 1.47734 0.794663 0.396667 -0.3225 -0.236547 -18.6853 -21.08 0.777197
474 1 Ar 11.857 0.466965 1.1639 0.396997 -0.554836 1.02163 -18.3559 -5.30762 -6.58737
473 1 Ar 12.739 0.669137 1.64703 -1.35806 -0.803607 2.44751 6.5213 -14.4187 12.9209
34 1 Ar 13.7038 16.5216 0.368682 0.324123 -0.245222 -0.4269 -3.40294 6.26991 7.12005
71 1 Ar 13.3524 1.42683 0.418633 0.0487282 -0.95541 1.12651 -9.14092 -0.0579089 6.08927
79 1 Ar 15.0814 1.01102 0.767369 -0.793042 -1.13202 -0.408382 23.433 0.44861 -4.85443
33 1 Ar 14.2075 0.810942 0.233265 0.54866 1.01712 0.555194 -7.65241 -29.7717 -14.0043
434 1 Ar 16.5605 1.5321 0.10994 -0.241146 0.768057 -0.829213 2.81513 -16.6146 5.17394
437 1 Ar 15.8332 1.93581 1.0685 -0.320986 -0.876535 -0.00208827 8.12329 -29.6923 -7.12004
438 1 Ar 16.3149 0.833715 0.955763 -1.11055 1.33874 -0.256196 -33.0794 -14.0669 -14.6879
83 1 Ar 15.461 1.73674 0.00184412 -1.61498 1.27532 -0.589703 -12.686 -4.86543 10.9731
442 1 Ar 1.39645 2.49218 0.841355 0.04673 -0.871194 -0.0599343 -9.71519 27.2401 10.7241
481 1 Ar 0.954673 1.73636 0.331837 -2.57321 -0.0728071 -0.144902 -13.9424 -22.4168 2.27817
402 1 Ar -0.0196537 3.18608 0.855458 -1.42497 1.72662 2.69009 4.40466 11.0569 -8.18822
485 1 Ar 0.753731 3.19296 1.64501 0.749258 0.573128 -0.577458 1.1438 -11.7875 7.52995
487 1 Ar 2.13066 2.39717 1.53527 -0.0122471 -0.0167522 1.05521 2.51598 -14.5723 18.7979
46 1 Ar 2.18421 1.93603 0.522598 0.431863 1.01435 0.202871 7.16821 -21.1628 11.759
48 1 Ar 2.5948 3.04257 0.848506 0.673704 2.07069 0.880039 -2.785 -11.1529 3.57745
489 1 Ar 3.51848 1.46148 0.201588 0.874856 0.441965 1.32713 -5.5082 -0.720488 -16.0649
413 1 Ar 4.54211 2.291 0.293069 0.0438089 0.0317652 -0.186206 -3.46785 2.86115 -2.97289
1134 1 Ar 3.46964 2.54343 0.653533 -0.721395 -0.127251 -0.838204 7.83739 -16.9617 -3.50311
375 1 Ar 4.70439 2.52048 1.35697 1.06973 -1.17053 -0.99232 -7.55531 -7.10041 -0.754702
529 1 Ar 5.46465 2.83293 0.592342 0.998161 0.95153 -0.945758 5.09628 3.80773 -17.7261
454 1 Ar 5.89602 2.33906 1.37019 0.792717 0.205804 1.38612 8.64867 0.66681 13.8765
64 1 Ar 7.94194 2.32415 0.828313 -1.11437 -1.47192 -0.742221 -14.9334 -9.02175 8.90138
493 1 Ar 6.98615 2.67499 1.63245 0.0667861 0.904897 2.84747 13.6155 -6.8186 32.9116
894 1 Ar 6.65967 2.86592 0.727401 0.644996 -1.35177 -1.12036 -1.63093 15.4532 -26.1889
3701 1 Ar 8.5092 2.10378 16.5049 0.222914 1.12114 0.72696 -10.6231 -14 7.2017
25 1 Ar 10.4979 2.01898 0.394235 0.505763 -1.14744 -0.773806 7.60372 1.35125 -23.3306
432 1 Ar 10.2771 2.43025 1.62482 0.352848 1.36702 -0.863421 6.73422 2.54902 10.6741
97 1 Ar 9.72067 2.61087 0.762507 1.11358 1.19543 -0.589993 -9.22866 0.519107 -8.69437
106 1 Ar 10.5596 3.49976 0.954006 0.453049 -0.125236 0.281028 -9.9599 -9.72125 4.09996
912 1 Ar 11.3403 2.22509 0.939096 0.558142 -0.34817 0.240513 7.07895 11.1084 13.9857
32 1 Ar 11.0888 3.79225 1.88488 0.192094 -0.256575 -0.922456 10.6485 5.05705 -16.7346
29 1 Ar 11.7271 1.38373 1.78202 -0.247824 0.37228 1.08793 22.7139 2.72757 1.15658
513 1 Ar 13.1938 2.58605 1.0843 0.58316 -0.353904 -0.00588648 -13.2176 -1.02545 5.40912
109 1 Ar 12.938 1.648 1.60514 -0.192587 0.528165 1.05586 19.0573 25.2705 2.11415
36 1 Ar 14.8684 1.90113 1.50805 0.326768 -0.338246 -0.830366 -2.51369 11.0676 -7.48459
3674 1 Ar 15.2073 2.77053 0.541317 -0.0303409 1.73245 0.0980669 -31.0203 -7.85423 -29.6039
553 1 Ar 14.9706 2.94959 1.73211 0.280261 0.153814 0.248371 -32.7675 3.82088 3.36562
3716 1 Ar 14.1802 2.66289 0.815818 -0.373961 -0.661529 0.898763 8.5397 13.2967 3.60413
441 1 Ar 0.180869 2.18571 0.844011 -0.889431 1.79225 1.24751 -8.76399 11.1267 9.97912
3683 1 Ar 15.6664 2.37522 2.37461 0.425283 -1.27828 1.48763 3.18306 16.6556 -4.11748
42 1 Ar 16.161 2.50199 0.161088 -0.519973 -0.576575 0.181295 2.73534 14.3464 25.2547
523 1 Ar 1.04384 3.57046 0.727225 -0.814312 -0.526321 -0.493401 0.237803 -9.96576 -18.7568
163 1 Ar 1.95655 4.30996 0.660271 -0.30806 -0.593527 0.258498 -40.1992 31.9377 31.3984
558 1 Ar 1.02568 4.44703 1.21533 0.0625343 0.114792 -0.561312 -1.82725 9.69037 15.4723
525 1 Ar 1.79292 4.26462 16.2692 0.45256 -0.222625 -0.329256 14.3036 -9.29088 2.00168
486 1 Ar 2.54284 3.75895 0.159211 -0.373494 -0.768066 0.398588 29.8566 -3.38895 -38.4791
452 1 Ar 2.87631 4.0872 1.27239 1.73345 -0.363985 0.224774 -22.0598 3.96034 1.36503
92 1 Ar 3.63383 3.42031 1.20113 1.14894 0.61236 -0.633938 8.69497 3.60441 -19.9955
129 1 Ar 4.43309 4.73579 0.803373 -0.321285 0.480372 -0.370519 2.65677 3.74701 1.08742
530 1 Ar 4.7179 3.52664 0.742301 1.03613 0.862124 0.135324 -8.83909 10.0561 3.92171
3692 1 Ar 6.01946 3.67371 0.984488 -0.438301 0.827763 0.841064 7.51049 3.51089 0.125544
3731 1 Ar 5.45886 4.30006 0.237666 -1.10791 0.153207 -0.158899 -0.60404 -20.3479 -8.5289
3657 1 Ar 7.23873 3.69299 0.122543 0.647404 -0.516002 -1.05743 -31.6049 -3.70878 7.44375
490 1 Ar 6.18832 3.62998 16.5644 0.0234328 1.35332 -0.75908 -8.67826 16.4779 12.5344
3653 1 Ar 5.31394 4.40088 1.24483 -0.222483 1.0852 1.43728 2.19529 -4.11205 18.5539
3695 1 Ar 8.69583 2.88005 0.436833 0.530106 0.678079 -0.72131 7.97698 15.9764 1.04402
61 1 Ar 8.49398 3.0093 1.60556 -0.830007 0.0238431 -0.532384 27.651 -16.2641 -19.2842
898 1 Ar 7.75396 3.5359 1.13266 1.26924 0.37688 0.128408 -9.00805 2.85951 -12.8689
100 1 Ar 9.40698 3.59252 0.990227 -1.35207 -0.0949761 0.21338 -3.42793 7.04696 -1.56082
68 1 Ar 10.0885 4.28442 1.5927 -0.124596 0.260579 -1.63358 2.13374 8.98664 -4.69199
3704 1 Ar 10.7208 5.00566 16.7624 -0.121696 0.336962 -0.0042685 7.32263 7.96643 2.07878
112 1 Ar 10.5124 3.53937 2.67797 1.05019 -0.0349465 0.160842 -3.02639 1.46681 12.1342
94 1 Ar 10.4146 5.24707 1.07945 -0.145764 0.904749 -0.750996 -14.3617 13.3039 -10.6288
76 1 Ar 11.0603 3.94789 0.10167 0.574782 0.372282 -0.165473 5.56291 -0.897505 -9.0052
75 1 Ar 11.7471 3.23981 2.52342 -0.813645 -1.17501 -0.236592 4.71205 6.66259 -2.99745
73 1 Ar 11.6095 3.42953 0.914426 0.883009 0.168854 0.643009 -21.5349 -16.5091 0.185544
67 1 Ar 12.1047 2.63067 1.57839 0.583843 -0.641417 1.73089 10.495 0.856687 -4.66337
3714 1 Ar 13.7351 3.58931 1.40979 -0.728503 0.290317 1.57098 -11.0413 -20.733 -11.4107
509 1 Ar 12.7341 3.49445 1.8792 -0.0878921 0.151176 0.175871 -8.34329 -0.970578 -4.68122
153 1 Ar 14.5071 3.92824 1.99868 0.0933779 -0.100018 -0.893293 -5.71863 -8.26249 26.903
81 1 Ar 15.0649 4.45356 1.37118 -0.499249 -1.19577 0.761499 8.4013 15.4852 -5.66181
962 1 Ar 15.878 4.05332 1.95938 -1.08561 1.05214 0.797371 -2.92975 -13.0849 3.03851
120 1 Ar 0.0872694 4.0173 1.5063 -0.648812 0.157414 -1.16143 1.24162 5.75011 3.36454
480 1 Ar 16.5515 3.12499 2.12142 -0.793814 0.488794 0.532316 -3.27477 1.4405 0.423915
115 1 Ar 15.8359 2.90792 1.27169 0.266198 0.369143 -0.786959 51.2711 28.1833 23.7335
124 1 Ar 1.08433 4.85299 0.18519 0.0168482 -0.687515 0.563769 6.92723 -0.555458 5.50364
524 1 Ar 1.18266 5.47551 1.1603 -0.0794915 -0.317873 -0.440889 -0.125376 2.91778 9.48584
123 1 Ar 0.543958 5.75708 0.315353 0.0711382 -0.722127 -0.440977 1.92191 10.6168 7.64186
3725 1 Ar 1.80027 5.69669 0.354459 0.113355 0.629276 -0.149252 -22.646 -1.15926 -9.20753
522 1 Ar 2.64988 5.09952 0.411493 0.23031 0.787243 0.325533 16.678 -10.9012 -5.63605
157 1 Ar 2.64781 6.1702 0.649636 -0.332025 0.16223 1.42985 21.1727 20.9535 -7.90547
173 1 Ar 2.39724 5.49341 1.36302 0.271852 -0.226361 -0.461513 -13.4175 -17.9651 18.7207
3772 1 Ar 3.16927 6.15884 1.6297 0.599182 -0.325064 0.142546 15.0355 -13.7665 7.08871
893 1 Ar 3.48904 4.92741 1.30876 1.27581 -0.356376 1.12136 0.396605 9.71018 3.09391
3732 1 Ar 3.7618 5.5441 0.389819 -0.331336 0.422041 0.262599 -12.8019 -15.2705 19.132
174 1 Ar 5.38821 5.29163 0.0673619 -0.308647 2.34785 0.611457 8.55164 18.2952 -5.40942
3775 1 Ar 5.75554 4.64078 16.0212 0.200439 -0.981767 0.11631 10.5754 -4.94521 14.0343
130 1 Ar 5.6118 5.39901 1.06456 0.198626 -0.68812 -1.59021 -5.89537 9.97066 15.2036
3296 1 Ar 6.62101 4.66856 0.520708 1.77682 1.39788 -0.70016 -5.63576 -1.61411 -8.71915
3727 1 Ar 6.0683 5.79224 16.0579 -0.859197 1.03978 0.0359746 -10.2088 -10.0288 2.84541
90 1 Ar 6.369 4.83475 1.55494 -0.464982 0.866696 -0.310699 17.1492 -3.67114 -8.98168
573 1 Ar 6.37316 5.78509 0.424056 -1.2444 -0.0708267 0.243451 0.544595 5.17678 -9.98217
3735 1 Ar 7.23769 5.66008 1.05139 0.348063 -0.228254 -0.157144 2.34458 3.75207 -0.342207
3740 1 Ar 8.37771 5.24379 0.33718 -0.399366 0.02261 -0.267747 2.37211 7.49559 4.46895
219 1 Ar 9.2454 5.74774 0.927328 -0.137576 -0.0877392 0.311244 -9.3411 22.2657 -28.5991
538 1 Ar 8.65079 4.4176 1.01304 0.0638395 -0.840412 0.630209 -1.69118 -0.612914 1.18212
140 1 Ar 9.48281 4.90624 15.8387 -0.915601 0.806234 -0.423228 -22.9813 -18.8184 3.78279
539 1 Ar 11.0572 5.88569 1.67421 0.657871 0.241342 -0.118248 -3.10032 -0.935797 1.2613
506 1 Ar 11.131 4.50858 1.03163 -1.43913 -0.52251 -0.67644 9.12185 -16.3762 -30.5689
148 1 Ar 11.3803 5.66314 0.67948 -0.861108 -0.978526 -0.427235 -12.7564 -26.7257 -9.56433
189 1 Ar 12.1552 4.25776 1.13987 0.591156 -1.5764 1.61395 6.03107 6.41152 13.1125
190 1 Ar 13.4044 5.48542 0.420207 0.501822 -0.259949 0.770734 -4.30104 -17.2606 -23.5914
156 1 Ar 12.4287 5.2847 1.05843 -1.7519 -0.0465007 2.63839 -12.8827 18.9515 9.32205
989 1 Ar 12.444 5.65198 16.8038 1.15161 0.0792081 0.640399 -3.03028 -0.0034936 -0.393706
596 1 Ar 13.1657 4.4794 1.83777 -1.31984 0.600776 1.1145 -30.4995 -24.4683 -4.61611
196 1 Ar 13.1519 6.1452 1.06512 0.606478 0.299735 -1.65396 -14.1256 27.3436 43.9492
151 1 Ar 13.9117 4.51079 0.992671 -0.222458 -1.02399 -2.19588 7.65844 19.8169 -2.86736
559 1 Ar 14.2203 5.69224 1.16717 -0.880881 0.270883 0.348863 4.71305 -12.1922 -10.5978
200 1 Ar 0.0867379 5.46398 1.27319 -1.30032 -0.493898 -0.606011 -0.349581 3.3561 -4.8485
561 1 Ar 16.0979 4.54234 1.03904 0.319613 -0.449715 -1.08768 7.49912 -12.8439 -15.1534
518 1 Ar 15.6286 5.41292 1.19925 0.40336 1.96787 -0.378044 -8.9656 11.4993 -4.26256
564 1 Ar 0.787994 6.77304 1.06871 -0.598976 -0.320102 -1.81353 -3.75731 -8.62301 7.86191
3803 1 Ar 0.162534 7.81475 16.4612 -1.13847 1.51231 -0.585972 -8.42648 4.95332 -15.903
609 1 Ar 2.66659 7.0482 1.61288 -1.05045 -0.580172 0.130845 -6.30067 9.33026 -4.33646
126 1 Ar 1.47919 6.92292 0.252333 -1.86104 1.26907 0.0929702 6.70605 -10.7933 5.63873
1010 1 Ar 2.57728 7.21126 0.394552 -0.167982 -0.183955 -1.20735 -6.51398 -40.8491 7.08036
210 1 Ar 2.62536 6.14746 2.62069 0.95814 1.12049 -0.914384 0.44941 6.46022 1.48369
211 1 Ar 3.7623 6.69281 0.907896 -0.519977 -0.682079 1.29937 -3.32899 -1.60083 -1.47078
566 1 Ar 4.31908 6.32169 0.0779329 -2.14437 0.117618 -0.915912 -12.3263 -17.1121 -14.7883
653 1 Ar 4.91669 6.34555 0.915774 1.17079 -0.910539 0.0785416 -1.64713 -1.18041 -0.682573
178 1 Ar 4.28066 5.65007 1.72111 1.25252 0.380114 0.280477 -7.66241 9.88166 -11.0276
3817 1 Ar 5.47173 6.36728 -0.0380143 2.41846 0.177415 -1.4333 3.62601 -3.16475 3.29233
3774 1 Ar 4.78181 7.14057 16.6177 -0.841159 -0.501415 0.74072 29.9294 41.0789 8.03594
621 1 Ar 5.60488 7.18383 0.724381 -1.00478 -0.318673 0.5311 -0.656565 1.22238 -1.91601
3375 1 Ar 6.56529 6.78952 0.973693 -0.770595 0.383757 0.667153 -1.16041 -6.67879 -8.57181
3780 1 Ar 7.43821 7.25397 16.072 1.59771 0.42572 -1.06169 -45.7414 16.851 7.63904
613 1 Ar 7.53891 6.81888 1.44835 0.210963 -0.300088 -1.46623 -3.6977 3.9188 1.45457
3859 1 Ar 8.12219 7.30536 0.751288 0.663866 -0.939037 0.0273853 -26.2577 -7.47454 9.57623
215 1 Ar 8.22823 6.18572 0.937397 -0.139873 1.37375 -0.485926 1.38583 -1.03498 -0.330401
544 1 Ar 10.2855 6.41961 1.01108 0.311188 0.0340633 0.156357 -19.0285 -8.58377 3.17004
3836 1 Ar 11.1231 6.69785 0.476832 -1.74094 -0.305681 1.16227 4.41809 9.91139 -14.0902
183 1 Ar 9.09752 7.00993 0.918336 0.00478279 -0.741343 -0.435111 17.4731 -17.1255 -11.7717
623 1 Ar 10.0452 7.5098 1.41712 -1.65844 -0.996143 -0.331169 7.26777 -7.45001 1.44675
192 1 Ar 11.9785 6.38247 1.02495 -1.53679 0.720876 -0.574303 23.6943 10.9752 15.147
187 1 Ar 11.2504 6.96134 16.1772 0.149541 -0.933759 -0.220604 -12.8547 -12.1371 0.856337
588 1 Ar 11.1067 7.86614 1.74311 0.524603 1.48447 -0.458064 8.90685 34.8529 -7.78667
950 1 Ar 12.218 6.71724 16.7248 -0.306656 -0.417958 1.39872 -0.510084 15.7426 34.1042
193 1 Ar 14.7737 6.76455 0.0320494 -1.05445 -1.30789 -0.393826 -11.1061 -2.08443 -1.24057
993 1 Ar 12.8887 7.07798 0.677514 1.06282 -0.849244 -1.3804 -4.52679 -5.37595 26.9835
960 1 Ar 15.168 6.3886 0.995561 -0.366506 -0.700456 0.611264 -18.2149 -6.48442 -9.08479
3798 1 Ar 15.107 7.54218 0.631601 -0.491447 -0.883267 1.11274 9.67711 -1.13409 24.9093
557 1 Ar 13.7246 6.49194 0.214548 1.45431 -0.0414549 -0.695051 3.78735 4.04477 -4.95766
590 1 Ar 15.3449 6.81952 15.9579 -0.2532 0.978165 0.230038 11.9365 -7.02277 -6.46693
158 1 Ar 16.7426 7.46633 1.05272 -0.915563 -1.12675 -0.658457 -10.8929 -0.874812 -5.24514
605 1 Ar 16.3239 6.33625 0.723491 -0.817582 0.542823 -1.20288 3.5902 2.04797 11.4282
602 1 Ar 1.73584 7.87805 16.6606 -0.442882 -0.81212 0.7343 3.81276 -3.95199 0.769493
922 1 Ar 0.785677 7.82457 0.45329 -0.99139 -0.372326 0.30383 15.5253 -4.48661 16.1293
201 1 Ar 0.82358 7.67457 1.63936 -0.620365 1.36105 -1.71442 -0.965358 1.5072 3.3481
167 1 Ar 1.77929 7.74298 1.03827 -1.21509 0.239847 -0.0330053 2.44934 2.20903 -0.606619
612 1 Ar 2.68376 8.13992 0.150545 -0.0981985 0.838875 -0.422704 9.8391 50.2486 -33.1915
243 1 Ar 3.63526 7.39433 0.0336958 0.56394 1.3418 -0.416633 5.05474 9.13193 5.56757
652 1 Ar 3.93147 8.20852 0.620006 -0.114445 0.378385 -0.501005 -83.5755 52.5612 -18.2828
3016 1 Ar 4.80765 7.91488 0.646824 0.987727 0.714335 -1.29943 75.8801 -31.6437 21.6692
297 1 Ar 5.79122 9.13189 0.331134 0.86956 -1.20681 0.158713 9.29071 -10.4344 23.9903
569 1 Ar 4.88279 7.4639 1.90824 -0.868296 0.147886 1.75427 18.9272 -1.87213 1.48564
220 1 Ar 6.07785 8.18825 0.932901 0.0979698 0.25463 0.143014 6.31968 5.84325 25.932
1414 1 Ar 4.71308 9.74146 0.47388 0.381103 -1.01564 1.30915 32.1929 10.9741 9.68553
3779 1 Ar 6.67669 7.56811 0.30663 1.64648 -0.226178 1.46142 -22.1731 -11.5331 11.9433
218 1 Ar 6.62685 8.6838 16.6102 -0.846127 0.462455 -0.395711 4.97393 5.83006 8.98157
141 1 Ar 8.93522 7.78371 1.57009 0.994244 -0.360172 -0.156016 -20.2598 -17.2861 -2.78865
224 1 Ar 7.51204 8.02405 0.0780728 -0.770761 0.697103 1.06221 28.7983 12.8701 -4.64121
184 1 Ar 9.37768 8.62675 1.80878 0.888417 0.205416 0.738339 24.4009 45.6674 -8.85678
586 1 Ar 10.4701 8.69386 1.95782 -0.214041 -0.028523 -1.13212 -7.51516 6.0293 -4.37812
3787 1 Ar 10.1025 9.63259 0.910485 -0.669196 -0.315931 1.34358 -1.46029 -1.00555 18.2986
3739 1 Ar 9.67619 8.28384 0.892491 -0.342088 1.3307 -0.13641 -9.46221 13.7951 -27.2592
229 1 Ar 11.5047 7.65884 0.0406542 -1.62789 -0.399376 -0.105104 48.6888 11.9175 46.0019
625 1 Ar 11.1215 9.60695 2.44009 -0.448393 -0.302515 -0.347804 3.35932 -7.93999 -4.64559
186 1 Ar 10.621 7.87458 0.594246 -1.3803 0.283293 0.6235 10.261 7.71456 27.8542
152 1 Ar 11.7971 8.64763 0.852457 -1.08798 -0.00469349 1.21973 10.4437 -16.4362 1.16441
197 1 Ar 13.6958 9.02286 0.471419 1.94975 0.0976403 -0.676494 -42.9872 -61.9864 14.5536
636 1 Ar 12.8945 8.64669 1.18061 -1.05776 0.867104 0.0983111 1.93279 2.94187 7.29269
231 1 Ar 12.6252 8.05217 0.32087 0.00694463 0.399675 -1.52669 -3.52993 -25.28 3.94398
237 1 Ar 13.818 7.73939 0.501214 -0.733798 0.212566 -1.06661 11.2638 4.84543 -3.98782
3439 1 Ar 14.8103 8.62481 0.871965 -1.17536 0.109047 -2.21356 4.4469 6.11137 -13.747
3395 1 Ar 14.8132 7.89475 16.5242 -0.390526 -1.00601 0.955681 0.921194 -0.916336 -11.7323
3790 1 Ar 16.026 7.03469 16.7947 -0.234443 1.25933 0.967469 -3.49061 -7.71808 -5.24998
3808 1 Ar 0.140224 8.75755 0.252504 1.03507 0.240352 2.61525 13.3927 -12.5459 15.7928
164 1 Ar 0.0395165 8.53508 1.50009 0.503767 0.698917 -1.72829 -9.84712 2.24008 -0.533471
717 1 Ar 1.87356 8.90229 0.334335 1.59297 -0.325941 -0.0590853 7.92428 -8.13755 -7.12709
608 1 Ar 0.930644 8.70323 1.04405 -1.1766 -0.957912 0.797222 -0.390955 -0.738992 -32.0076
207 1 Ar 2.41008 8.73245 1.51965 0.712411 -0.374886 0.0640275 -12.4929 -7.9781 7.77345
206 1 Ar 1.71184 9.48337 1.19806 0.894143 -0.409292 1.61079 -3.06172 1.02864 7.46062
204 1 Ar 3.00558 9.05041 0.730716 1.32073 -0.0844405 1.12821 6.10414 -14.8641 -6.17815
649 1 Ar 3.94225 9.25679 0.135704 0.21523 0.71113 0.00964768 -29.7021 -24.8767 -19.6723
689 1 Ar 3.63356 10.8899 0.714942 -0.918178 0.677966 0.985416 2.99636 3.17995 -33.826
1082 1 Ar 2.70843 9.79078 1.44152 -0.222151 -0.907917 0.248934 5.03583 -5.83732 -8.37874
1049 1 Ar 3.8712 8.86672 1.83425 0.793824 -1.21387 0.626769 -1.57796 -2.52521 0.519145
638 1 Ar 3.8435 9.75496 1.14798 -2.50791 -0.976263 0.45588 -1.61668 4.4575 4.85548
217 1 Ar 4.59554 10.833 0.173015 -0.203658 -0.10969 -0.762824 9.88547 10.9523 30.2614
1020 1 Ar 5.9125 9.18571 1.98283 -0.666099 1.32596 0.941481 0.72574 -8.33281 9.80421
175 1 Ar 5.58502 9.77821 1.17047 -0.417554 -0.576735 0.87189 31.382 15.6813 0.606207
1051 1 Ar 4.84562 10.4259 1.26719 0.496206 -1.44172 -0.409133 -12.5081 20.3242 2.12227
258 1 Ar 6.86953 9.69435 0.0919221 -0.294791 -0.749379 -0.52963 -8.46572 13.2656 0.0881427
3904 1 Ar 7.58377 10.6246 0.472595 -1.42259 -1.0629 0.393127 -18.4552 -5.42676 17.4452
628 1 Ar 7.35909 8.93751 0.61751 0.0545385 -0.813178 -2.37456 17.9518 -5.18129 4.81103
665 1 Ar 8.21784 9.76176 0.336165 0.184171 -0.116877 0.217188 0.394049 -9.10389 7.07258
3784 1 Ar 8.63934 8.8264 0.837685 -0.695926 0.445958 -0.404019 1.66761 -3.81308 -1.068
222 1 Ar 9.28972 9.63998 0.244002 0.297679 -0.638268 0.613818 -3.94625 0.277397 -12.1138
672 1 Ar 11.0117 10.3566 0.553 -0.262053 1.00045 -0.587875 -2.86545 -0.0374353 22.6515
303 1 Ar 10.7537 10.1915 1.63969 -0.85368 -0.547105 1.51392 -1.03847 4.1579 0.24377
3796 1 Ar 12.1666 9.86572 1.88806 0.183918 -1.78974 0.0062549 -0.890257 -18.032 17.1555
669 1 Ar 11.1352 9.41182 1.06713 -0.351185 0.94196 -0.860253 4.10176 -3.67841 -0.548079
195 1 Ar 12.4988 9.00735 0.143544 0.461178 0.922439 1.35982 17.3084 37.4361 20.2192
271 1 Ar 12.4839 9.91892 0.827713 0.37322 -1.06549 -0.318231 9.99375 -7.93008 -8.71225
1072 1 Ar 13.8413 11.0019 1.02572 0.458504 0.257823 0.333402 9.16651 4.34992 -6.10405
194 1 Ar 14.2871 9.69975 0.176485 -0.482326 0.539175 1.34274 36.5384 43.3237 -22.0915
353 1 Ar 13.9394 8.83693 1.77476 0.707323 -0.251242 -0.0538518 -9.89312 17.5778 -43.0212
720 1 Ar 14.8706 9.65091 1.15216 -1.17477 0.271858 -1.8084 -7.53632 11.1546 1.37456
279 1 Ar 0.999915 9.50744 0.418938 0.233029 -1.06393 -0.683646 -7.883 15.6938 -17.2103
199 1 Ar 16.7185 9.66996 0.857653 -1.6272 0.0116553 0.270129 -21.9683 -15.1553 -26.1438
3795 1 Ar 15.2299 10.0232 16.591 -0.434488 0.0942842 -1.12414 8.83683 -14.5565 -2.03764
277 1 Ar 0.173506 9.65356 16.5033 0.958694 -0.367733 -1.0081 -1.51168 -0.832446 -6.48773
212 1 Ar 1.15097 10.5972 0.742537 0.0982821 0.33931 -0.541559 3.51587 11.2118 -13.6547
241 1 Ar 0.88471 11.7222 0.80592 -2.64415 0.255515 0.767717 -4.7676 4.05009 -7.55882
3887 1 Ar 0.934439 11.5599 16.4904 -0.441163 -0.887068 0.619656 8.42589 11.1297 25.2266
3888 1 Ar 1.1925 10.2874 16.3767 -0.138437 -0.496907 0.495483 -20.544 6.0517 13.7066
685 1 Ar 1.67413 11.3861 1.45308 -0.637945 1.2015 -0.0133316 13.0405 6.9027 -10.5985
247 1 Ar 2.25588 10.4491 0.673901 -0.535705 0.0444619 0.732903 -7.97127 -3.14204 4.58546
287 1 Ar 3.21782 10.6977 1.5998 0.962955 0.684612 0.554315 -26.0094 -10.7482 26.7512
3879 1 Ar 1.01591 12.6189 0.0171977 -0.879972 0.0645582 0.0704039 16.3203 -7.78303 13.1546
648 1 Ar 2.64646 11.4113 0.470641 -0.523346 -0.635849 -0.781325 8.54432 -15.4314 10.01
1056 1 Ar 4.13085 11.9024 0.759244 0.182353 -0.526323 0.361974 7.17504 -13.5182 5.68956
3895 1 Ar 5.96626 11.519 0.355691 -2.01039 0.943977 -1.65189 -14.3066 12.5879 1.75002
294 1 Ar 6.69652 10.9857 16.2576 1.37928 -0.0673508 0.610434 -9.30657 -6.02887 0.714237
257 1 Ar 7.00859 11.6328 15.4389 -1.04277 0.0291641 0.0599686 -15.8303 11.1121 -1.87223
650 1 Ar 6.09211 12.4959 0.900911 -0.294849 0.670315 0.401805 -15.3412 -7.32759 1.98479
1059 1 Ar 6.50816 10.7469 0.822217 0.03292 0.636531 -1.53299 1.41666 -6.45673 -1.70058
259 1 Ar 6.9383 11.7152 0.62558 1.19254 0.120941 -0.233103 19.1117 0.209492 12.9062
668 1 Ar 9.58387 10.7348 0.661444 2.14629 -0.531319 -1.0383 -2.30695 -2.00279 -8.48964
293 1 Ar 7.68286 10.0877 16.277 -0.411929 0.174689 1.07416 -18.9826 3.17119 -5.13593
3867 1 Ar 8.52632 10.7749 0.0980548 1.10769 0.336157 -1.2611 12.2217 -12.9726 -1.70521
232 1 Ar 9.54136 11.6665 16.7211 -0.724064 0.0111914 0.39029 -17.2076 3.49725 1.20571
626 1 Ar 10.7453 11.1557 1.24502 2.25041 0.222396 -0.240329 6.56892 -4.27803 4.58602
3512 1 Ar 11.1573 12.0173 0.827057 0.34931 -0.160693 0.693487 14.4476 9.56256 -27.6032
3832 1 Ar 10.4826 11.3361 0.147007 -0.215469 -0.737011 1.68201 14.8345 -1.93552 13.6178
996 1 Ar 13.68 9.84434 1.04594 0.325535 0.178797 1.27462 -1.93299 22.5806 16.3164
309 1 Ar 11.8919 10.6243 1.29834 0.42403 1.02936 0.993879 -17.0041 17.9291 -6.45379
3866 1 Ar 11.7033 11.2053 0.416446 -0.893871 -0.146968 0.638917 -0.0428122 2.08646 8.71559
270 1 Ar 12.7541 11.1781 0.786214 -0.934521 0.99098 1.26157 15.9944 -10.283 -13.031
351 1 Ar 12.3344 12.2668 0.616936 0.0297391 -0.450098 -0.294732 5.56235 13.8056 -12.9181
671 1 Ar 14.7761 10.6686 0.514914 1.73986 -0.482036 0.595657 -27.4355 -13.8212 24.8719
3876 1 Ar 14.6684 12.1986 1.24534 -0.742707 0.214017 -0.241338 18.0188 -14.7825 20.5288
1033 1 Ar 15.4026 10.9175 1.4639 -0.302371 -1.22994 0.279514 -10.3204 -7.56957 13.7997
360 1 Ar 13.5986 12.09 1.11813 0.264192 1.18461 -1.6029 -6.38336 1.2802 -1.90598
3875 1 Ar 14.3424 11.722 0.268683 -0.136588 0.889562 0.235025 1.88455 -4.02976 5.48186
315 1 Ar 15.7913 10.1547 0.812893 -0.0549655 -0.243221 0.0914449 -2.68369 -18.1278 2.23588
275 1 Ar 15.6974 11.0936 0.502029 0.338796 1.81353 -1.08127 8.75183 41.366 -19.7609
321 1 Ar 16.6243 11.9417 1.70235 -0.812722 -0.952763 -0.216961 18.6657 -2.21834 -3.09437
288 1 Ar 0.503533 12.8578 1.14846 -0.333138 -1.02443 0.337058 5.21382 -15.7603 -6.57588
726 1 Ar 16.7971 12.271 0.252468 0.269851 0.232544 -0.389622 5.15197 -1.56017 19.0646
245 1 Ar 1.89715 12.1375 0.253144 -0.263272 0.484418 -0.0227855 3.9101 -4.50139 4.67318
766 1 Ar 2.17128 12.881 16.3238 -0.178766 -0.252714 -0.10022 5.23316 2.01628 -1.42987
3892 1 Ar 2.96173 12.6962 1.50293 0.448261 -0.703441 -0.155491 -10.8639 56.8775 17.5608
3925 1 Ar 2.72257 13.5563 0.864595 0.00901743 -0.336628 -0.688419 10.5366 -6.32375 5.92687
1090 1 Ar 3.13142 11.7663 1.39425 0.419852 -0.489834 0.443209 7.95249 -59.8585 -4.44502
686 1 Ar 2.98941 12.3714 0.501726 -0.532772 -0.520953 0.657649 7.76579 15.3549 -5.38889
1089 1 Ar 5.0454 12.6712 0.642279 -0.105787 0.13781 1.38332 1.96706 -35.8063 44.4616
1456 1 Ar 4.68933 13.5638 0.40516 0.507728 0.429412 -0.329714 -4.12348 39.9428 8.3665
729 1 Ar 4.25326 12.7854 16.7559 -0.387444 1.18469 -0.0862816 7.76241 13.5853 -13.2164
332 1 Ar 5.59392 13.5888 1.18878 0.0954502 0.744231 -1.42074 1.26409 -17.9032 -6.839
1094 1 Ar 6.19383 13.384 0.21321 1.11272 -1.41091 0.827426 15.9063 18.6729 14.3584
3900 1 Ar 7.00493 12.8387 0.608554 0.0863409 0.501824 -0.698086 13.5543 -14.2698 6.49135
3937 1 Ar 8.33741 13.1063 16.4522 1.58499 -0.0827694 1.00617 1.83501 -9.05706 6.27989
295 1 Ar 8.73488 12.2422 16.042 0.423752 0.668755 0.272709 10.5418 41.318 -1.97978
302 1 Ar 7.88068 12.2142 0.215806 -0.91614 1.4324 1.37463 -4.3049 10.7315 -0.244552
662 1 Ar 9.08222 12.5689 0.361519 -1.9178 -1.50654 -1.05899 -19.9678 0.721217 0.0211734
707 1 Ar 10.1025 12.4865 0.506241 -0.773449 1.25953 -0.00663788 32.4427 -18.4097 22.2388
749 1 Ar 11.0167 13.1481 1.10102 0.411033 2.53245 0.326118 -5.41002 2.00962 -3.416
747 1 Ar 9.47922 13.2975 1.18213 -0.41617 -0.119265 -0.595594 -3.43395 -19.3885 9.91849
346 1 Ar 10.6739 13.7205 0.133876 -0.256217 0.373631 -0.14234 1.26901 9.65027 13.8273
385 1 Ar 12.2362 12.7302 16.4485 0.635611 0.653545 -0.073461 17.4822 0.533211 17.3047
3392 1 Ar 11.1064 12.798 16.771 -0.230956 0.446502 -0.366407 8.3237 -9.93303 -1.68745
306 1 Ar 11.8612 12.7102 1.61065 0.878248 -1.05798 -0.841103 -5.32955 -1.9456 -18.9835
354 1 Ar 13.2126 12.9669 0.39701 0.510226 0.63151 -0.853986 -11.4551 -12.466 8.04183
387 1 Ar 12.3483 13.5173 0.910083 0.544421 0.450451 0.629588 11.0272 -32.6289 -17.7556
391 1 Ar 12.8575 12.6668 1.82286 0.205968 0.592185 0.0302674 16.1046 15.4689 -17.4101
3959 1 Ar 14.3552 12.7939 0.543584 -0.58257 1.11806 -0.0473004 -14.5097 27.1031 -29.5028
393 1 Ar 13.8926 13.64 2.65389 -1.73813 1.18042 -0.615891 9.91873 -16.8822 -4.10748
684 1 Ar 14.8047 13.5333 1.60964 -0.2079 -1.5095 -0.458922 20.2186 -31.0479 -8.98811
318 1 Ar 15.7238 12.3046 0.603538 -0.370761 -0.065547 -0.153338 -3.87553 -5.05512 3.14096
317 1 Ar 16.3263 13.1794 0.670123 0.971827 -0.148868 -0.0935808 8.67987 -2.94969 4.70159
3884 1 Ar 15.6058 11.9374 1.72918 0.243947 -0.86686 0.976114 -17.0495 3.2126 -10.0256
368 1 Ar 0.776594 13.6933 0.305983 -0.780884 -0.564568 0.071579 2.2441 0.601247 6.05826
282 1 Ar 1.05535 14.857 0.756967 0.406921 -0.483478 -0.685698 -9.21839 -20.9889 -30.2683
362 1 Ar 1.64851 14.3988 16.3719 1.24313 -1.3881 -0.771487 -5.16718 27.2072 -14.6145
361 1 Ar 1.95203 13.7327 0.230141 2.30141 -0.321721 1.4593 -6.03856 -20.4979 12.3317
3 1 Ar 2.06422 14.4912 1.09858 0.0543685 -0.00719408 1.13119 19.8568 -0.0901797 -17.6105
371 1 Ar 2.69459 14.589 0.246128 -0.0632936 -1.97928 -0.725014 -1.12511 1.10567 -5.80888
762 1 Ar 4.57642 14.2226 1.21657 1.08181 -1.10548 -0.788567 -16.0451 -24.7531 -5.93759
773 1 Ar 3.90931 13.8314 16.324 0.554991 0.944316 0.138186 6.37483 8.06071 -1.31744
736 1 Ar 5.03998 14.7963 0.311388 -0.649441 -0.801432 -0.516583 1.17892 2.80995 5.50634
3977 1 Ar 5.52073 15.5452 1.58952 0.228095 -0.629607 -0.535509 4.92504 25.966 -1.05398
3580 1 Ar 5.50818 14.5776 1.43282 1.88283 1.35791 0.212753 2.66061 -9.46924 6.06653
333 1 Ar 6.22219 14.5319 16.6436 -0.830272 1.2116 -0.819089 1.9756 -3.25743 -1.66491
733 1 Ar 7.14182 15.4897 0.642194 0.412901 -0.207553 -0.30834 6.22738 -2.12642 -1.66822
694 1 Ar 6.38302 14.3285 0.902797 0.801207 0.561049 -0.499514 8.7666 5.79982 -24.9982
3940 1 Ar 7.62637 14.7427 1.44579 -0.947155 -0.00517999 0.448332 -12.0456 0.0571833 0.978996
296 1 Ar 7.19414 13.6959 0.102634 -0.764069 -0.744764 0.436481 10.7867 13.1423 -7.07721
305 1 Ar 8.01862 13.188 0.804721 1.89139 -0.257067 -0.994539 11.0791 2.81672 -24.4558
337 1 Ar 8.65175 15.0498 1.49002 -0.693682 0.0971333 0.0354883 5.27623 -1.14702 1.38429
3944 1 Ar 9.48913 16.6334 1.75687 -0.71851 1.24879 0.848955 -1.71088 23.7018 -8.52207
342 1 Ar 9.50654 15.2398 0.462159 -0.653146 -0.450559 -0.228819 -6.99961 2.87725 18.624
788 1 Ar 10.4844 15.3307 1.08388 0.0427348 1.43412 -0.0100082 -6.91677 1.09124 0.671656
746 1 Ar 9.83818 14.1104 0.671392 0.333551 1.59699 1.22692 15.7041 21.1835 -0.0758181
350 1 Ar 11.6425 14.217 0.30079 0.0822149 0.207126 0.119808 3.69333 -15.4019 -1.76587
381 1 Ar 10.7554 14.7883 0.232495 -0.762364 0.0122861 1.36054 -29.6071 -33.4411 37.4792
352 1 Ar 10.8581 14.2829 1.28903 1.4572 1.2624 -1.00131 0.698623 0.313689 -1.73659
3912 1 Ar 14.1523 13.8982 0.763252 -1.05795 -0.264836 -0.216072 28.2897 8.83214 24.2494
3591 1 Ar 13.4035 13.5508 1.33889 -0.524168 -0.948882 0.205481 15.56 -17.1792 -39.5178
39 1 Ar 14.9946 14.5025 1.27313 -0.996772 0.620633 -1.60815 3.72903 11.4239 -8.41972
681 1 Ar 14.2089 15.1549 0.63654 0.654077 -0.360366 1.20527 -10.8671 -7.65891 -5.05539
357 1 Ar 15.8851 14.5028 0.720998 0.137743 0.804625 -1.79719 7.50527 -24.1118 -17.874
798 1 Ar 0.783597 0.153493 1.41005 -1.24243 0.237268 0.480396 2.03761 4.94397 -1.68593
3640 1 Ar 0.522936 16.5235 16.5845 0.457162 0.373017 0.0173244 -23.294 -36.2791 24.7599
765 1 Ar 16.6782 16.5042 1.06147 0.262125 1.97882 1.10587 29.9907 -8.19933 -12.4922
49 1 Ar 2.28394 16.3848 1.0842 -1.16812 -0.923348 0.53096 -3.05711 -0.805074 -4.11494
364 1 Ar 1.79819 15.313 0.202837 0.719743 -0.200647 0.292678 12.4674 9.3426 -5.39817