ITEM: TIMESTEP
7900
ITEM: NUMBER OF ATOMS
4000
ITEM: BOX BOUNDS pp pp pp
0.0000000000000000e+00 1.6795961913825074e+01
0.0000000000000000e+00 1.6795961913825074e+01
0.0000000000000000e+00 1.6795961913825074e+01
ITEM: ATOMS id type element x y z vx vy vz fx fy fz
446 1 Ar 1.2378 1.01218 1.04753 0.0554272 1.14082 -0.153249 6.5555 2.33768 0.0501779
3966 1 Ar 0.293928 0.597223 0.158879 -1.25565 -0.502468 -0.0814804 12.6032 0.306892 8.54982
439 1 Ar 0.337856 1.68012 0.959766 0.443994 0.368877 1.20381 -8.89671 -8.35624 4.25798
91 1 Ar 2.78051 0.315738 0.902761 0.366891 -0.165247 -0.300543 8.52876 -10.7241 -6.87258
12 1 Ar 1.90628 0.185345 1.63041 -0.585855 1.11373 0.379461 24.3342 0.35364 -11.1465
761 1 Ar 2.80153 16.2343 1.42825 0.936221 -0.537713 -0.396127 -7.04709 -2.77949 -19.1516
93 1 Ar 3.67416 0.352596 1.64348 -0.300684 -0.246486 0.213462 -22.7941 18.7161 -31.5001
1170 1 Ar 4.35894 1.36487 16.7489 -0.526622 -0.713432 0.225886 -21.7096 1.90862 8.84114
811 1 Ar 4.01698 1.98176 1.50491 -0.0653858 0.653184 0.136851 1.89173 -9.59985 -29.8253
457 1 Ar 5.29221 1.06685 1.71803 -0.394045 -0.3362 0.0126909 4.45456 -3.23142 -3.12493
500 1 Ar 5.3797 1.85931 0.395206 -0.327499 0.563023 -1.28918 -2.78524 -7.73682 1.25284
3975 1 Ar 5.2529 0.961753 16.7307 0.123457 0.719039 0.267302 29.8962 -33.0439 -10.627
460 1 Ar 7.08002 -0.0129764 0.90865 0.734198 -1.42383 -0.459866 3.33308 -0.380034 -5.04785
334 1 Ar 7.48148 1.07804 1.40668 -0.815094 0.00903916 0.271956 -2.9343 8.98511 -9.66754
95 1 Ar 6.40842 1.63036 0.977408 -3.00189 -0.0440292 -1.01471 -1.63896 -3.0666 -0.348172
780 1 Ar 7.74787 0.665326 0.287233 0.0245649 0.126784 0.318933 -5.67769 -5.82319 -5.85617
383 1 Ar 8.47162 1.14857 0.848576 -0.616304 1.52685 0.203244 -2.60915 11.7015 18.9012
384 1 Ar 8.99246 0.450102 0.261162 0.446528 0.427405 0.338166 5.10165 -0.7189 -1.29851
63 1 Ar 10.533 1.45247 1.28155 1.17125 0.54926 -1.37177 24.4295 -6.65716 21.3555
505 1 Ar 10.0775 0.71015 0.328338 0.063172 1.97339 -1.444 1.74137 9.00468 -0.961747
379 1 Ar 9.57344 1.50521 1.05517 -0.199517 1.51055 0.137017 -27.2346 4.36844 1.96289
23 1 Ar 9.9268 16.5105 16.348 0.0284112 1.92528 0.679626 15.4449 6.49443 2.13157
3625 1 Ar 10.865 16.7138 0.446182 0.918578 -1.28191 0.156468 2.85762 -0.32309 0.16069
469 1 Ar 12.2587 1.43257 1.06725 0.122777 -0.991545 2.23646 -9.16929 0.567777 -8.97466
474 1 Ar 11.4511 0.573205 1.50102 1.22339 0.973022 -1.21478 -7.59718 -32.0669 -9.07688
473 1 Ar 12.4978 0.639116 2.18244 -1.11276 -0.219519 -1.31447 -2.75751 3.67077 0.910608
34 1 Ar 13.4943 16.2971 0.264153 0.426451 1.06627 0.201817 14.4058 -16.2157 -6.96227
71 1 Ar 13.3222 1.52517 0.319795 0.32867 -1.11303 -2.00533 -2.02021 -13.429 -11.8748
79 1 Ar 15.1225 1.05907 0.925549 -0.713747 -0.390876 0.424639 3.86149 -32.6639 5.15964
33 1 Ar 14.2749 0.850768 0.139344 -0.351589 -1.43864 0.198868 -9.219 -0.438494 8.18037
434 1 Ar 16.399 1.57213 0.163848 0.100851 1.19253 -0.998524 -0.595077 2.8074 -6.58297
437 1 Ar 16.0551 1.83037 1.43736 0.486802 0.734677 0.362319 1.16183 0.267822 0.730714
438 1 Ar 16.2878 0.871972 0.976222 -0.431984 -1.15447 0.12042 -4.3348 -7.4613 -0.435968
83 1 Ar 15.3452 1.49024 16.5884 -0.877539 -0.00662333 0.0246743 5.63916 -8.71277 -9.91247
442 1 Ar 1.84221 1.87984 0.369933 0.656862 0.79122 -0.4733 10.3329 10.5267 -22.1756
481 1 Ar 0.949606 1.55519 0.034953 0.979008 0.872346 -0.654769 -20.137 -6.62246 -4.18004
402 1 Ar 16.2979 3.59766 1.22405 -1.20817 -0.717899 1.0258 16.4278 15.4574 -0.890981
485 1 Ar 0.680823 3.66554 2.14721 0.398426 1.07112 0.522306 -17.8811 4.38072 -2.74328
487 1 Ar 1.76299 2.13265 1.33758 -0.103012 -0.365021 -0.0264222 1.97532 0.88206 22.3873
46 1 Ar 2.43837 1.25247 0.935246 1.31175 1.08328 -0.244046 -4.91938 16.3441 7.02057
48 1 Ar 2.09364 3.17753 0.632577 0.37001 1.45521 0.65678 -31.1484 -10.978 -18.167
489 1 Ar 3.49767 1.26763 0.604353 1.15791 0.413378 0.872192 2.48142 -2.51185 3.96852
413 1 Ar 4.22133 2.27274 0.410614 0.133179 -1.3262 -0.397788 4.92448 6.56029 31.3665
1134 1 Ar 2.82726 2.50585 0.466713 -1.09626 -0.752777 1.38942 19.2132 -11.8822 6.41912
375 1 Ar 4.77146 2.70768 1.79036 1.27873 1.55595 -1.51348 -28.0094 27.84 -15.7142
529 1 Ar 5.54686 2.83337 0.545425 0.312636 0.0830316 0.545942 -7.80913 28.4244 0.16478
454 1 Ar 6.02945 1.83039 2.02099 0.296257 -0.612261 0.935673 -11.3905 3.19262 -0.73377
64 1 Ar 7.41027 2.05897 0.862509 0.236097 0.0523035 0.223657 -2.05267 -6.18813 -1.63762
493 1 Ar 6.93372 2.33331 1.94443 0.677411 -0.263199 1.72892 24.4797 -7.10854 -13.8406
894 1 Ar 6.78408 3.37089 0.546685 -0.400038 1.35012 -0.0931604 -21.153 10.8757 -2.0178
3701 1 Ar 8.09388 1.99695 0.0129929 -0.234399 0.24874 -1.01103 28.1744 -1.23226 0.45345
25 1 Ar 10.483 2.02201 0.393498 2.15002 -0.398963 -0.93498 3.07214 2.66297 -8.84444
432 1 Ar 10.1709 2.62287 1.33286 -0.288238 0.921743 1.23972 -12.2329 -8.75177 -3.88778
97 1 Ar 9.51776 2.50233 0.476853 -0.732366 -0.595698 -0.993347 -24.9018 -55.8225 -3.94059
106 1 Ar 10.9621 3.05467 0.802964 0.623588 0.945075 -0.280829 -13.0784 17.0762 1.9788
912 1 Ar 11.3698 2.10881 1.02521 0.729111 -1.67526 -1.17015 -3.35289 -28.3494 -12.8593
32 1 Ar 10.4071 3.22633 2.18068 -1.68079 0.869636 2.26471 -7.95969 16.9801 0.94575
29 1 Ar 11.4924 1.44348 1.95086 -0.113075 0.780468 -0.960274 7.77506 30.454 10.4227
513 1 Ar 13.253 2.39429 0.829015 0.838249 0.323971 -0.51398 27.1524 13.1517 6.84703
109 1 Ar 13.1851 1.13453 1.48308 0.358073 -0.506709 0.416399 4.34147 -2.46033 0.709048
36 1 Ar 15.2038 2.00408 0.656232 0.139299 -0.412343 0.338629 6.88613 38.0713 11.1975
3674 1 Ar 15.1773 2.92392 -0.00169672 0.69574 0.164773 -0.108046 -0.601308 1.89804 -0.532474
553 1 Ar 14.7866 3.20999 2.12638 0.49551 -0.899436 0.296538 5.37073 -29.5821 -8.02176
3716 1 Ar 14.372 2.74291 0.826061 0.0335572 0.678066 0.139753 3.60494 4.12625 2.07656
441 1 Ar 0.220888 2.83021 1.33796 0.120546 0.423389 0.240468 -11.4982 -2.06026 11.9156
3683 1 Ar 15.6847 2.10704 2.83016 -1.29586 -0.680551 0.333382 -9.03485 2.93067 -10.3291
42 1 Ar 16.2478 2.68874 0.475966 0.361593 0.942428 0.355274 -1.35716 -10.7996 -4.24201
523 1 Ar 0.616125 3.77721 0.930957 1.82615 0.903182 0.136058 4.13515 -4.41373 2.49522
163 1 Ar 1.68066 4.12372 0.398295 -0.672993 1.26622 1.11917 9.70309 1.43526 -3.71453
558 1 Ar 1.46485 4.15677 1.47855 0.420856 -1.72388 -0.0387438 2.75218 -7.39699 -3.30027
525 1 Ar 1.54743 4.02365 16.012 -0.533236 -0.737508 -1.47739 4.2738 4.11924 -3.66983
486 1 Ar 2.80654 4.03294 16.5138 -0.279979 -0.995832 0.291471 -11.9537 -16.0081 9.91431
452 1 Ar 2.60417 3.9202 1.07516 -0.822104 1.48853 -0.234194 13.0771 37.9881 -3.08634
92 1 Ar 3.52448 3.38593 0.354123 -0.115154 -0.00914395 0.0051656 -0.960987 -6.01539 8.8784
129 1 Ar 4.76588 4.70311 0.857495 0.38224 0.0179439 2.32767 -0.333914 -8.79426 -2.83314
530 1 Ar 4.63031 3.42101 1.00003 1.50213 -0.0192516 -0.419283 -14.2295 -21.5841 -40.5193
3692 1 Ar 6.09344 4.13558 0.076831 -1.65812 1.19745 0.264661 8.11015 -4.14906 11.29
3731 1 Ar 5.05802 3.85997 0.134346 0.565547 -0.582133 0.199163 8.1132 16.7113 4.01859
3657 1 Ar 7.15978 4.20463 16.6884 0.570993 0.425591 1.5991 -15.4081 -10.4275 16.1809
490 1 Ar 5.72885 4.32626 15.9371 -0.480881 0.386982 0.270498 -13.2707 -22.928 -4.17508
3653 1 Ar 5.6654 3.78679 1.03889 -0.0534191 -0.699985 -0.223988 3.5356 14.3651 -6.79736
3695 1 Ar 8.48897 2.93585 0.316067 -0.297916 0.373526 0.394715 15.3098 0.662296 -0.953124
61 1 Ar 8.4577 3.69628 1.71137 0.487428 -0.121931 -0.953922 -3.75232 7.93476 -9.54698
898 1 Ar 7.50145 3.03986 1.20132 -0.0923731 0.519853 0.344824 19.5818 0.767053 -2.70485
100 1 Ar 9.1857 3.10945 1.22975 -1.21197 -1.69452 1.14794 0.694764 8.48703 0.650366
68 1 Ar 10.1876 4.2088 1.55836 -0.257134 0.631993 -0.44719 -1.01715 -5.40848 -4.28444
3704 1 Ar 10.5962 4.93912 0.105953 0.142483 0.254442 -1.00912 -12.1791 26.9416 6.51121
112 1 Ar 10.3195 4.25866 2.685 0.0660182 0.302724 -0.77684 1.38928 -16.8655 -21.8753
94 1 Ar 10.4581 5.28874 1.20365 1.36689 0.904608 0.500167 66.2799 7.92584 -14.2116
76 1 Ar 10.8974 4.01987 16.6863 -0.886443 -0.0847798 0.49837 10.8278 -42.7761 11.5015
75 1 Ar 11.2499 3.73003 2.62988 -0.0928605 -1.26016 0.401118 -6.1491 -3.74452 -9.98275
73 1 Ar 11.7611 2.9184 1.42093 -0.57817 -1.60568 0.82241 18.7466 -0.89252 12.2368
67 1 Ar 12.6201 2.2807 1.60775 -1.53757 -0.0127809 1.79167 -7.79592 0.331178 19.3021
3714 1 Ar 14.3147 3.95879 1.64491 -1.37889 -1.19983 -0.43067 -27.6099 -11.6776 -6.17062
509 1 Ar 12.2346 3.31916 2.27793 0.117627 -1.02283 1.19809 -0.92459 0.615842 5.23699
153 1 Ar 14.7843 4.24124 2.54383 1.27286 0.313927 0.263287 6.53765 -26.8075 -1.30008
81 1 Ar 14.7404 4.69918 1.143 1.61909 0.580674 -1.4859 34.2305 18.157 -9.42248
962 1 Ar 15.42 3.91277 1.73052 0.646138 2.028 0.719461 0.552079 14.2288 -19.3504
120 1 Ar 16.1737 4.68638 1.66143 0.546517 0.884104 -0.79162 4.34462 -10.7885 -11.5702
480 1 Ar 16.545 3.03875 2.31882 -1.81017 -1.16148 0.960502 2.55342 -0.859148 -0.156495
115 1 Ar 15.6231 2.83563 1.28572 -0.997508 -1.20292 -1.35453 -21.9439 -6.8773 12.3557
124 1 Ar 1.00933 4.88365 0.72037 0.0987411 -1.51926 0.676898 -3.45644 -4.25148 0.432772
524 1 Ar 1.17503 5.52451 1.51106 -0.657257 0.585835 -0.308711 2.93675 -6.43943 6.48372
123 1 Ar 0.46623 5.74879 0.44456 -0.559157 0.819313 -1.08333 10.1683 -3.13628 -12.1791
3725 1 Ar 1.78939 5.64752 0.441294 -0.330861 0.0749906 -1.48094 -11.7484 27.504 -16.783
522 1 Ar 2.9802 4.79844 0.468634 1.71004 -0.238015 1.0121 -4.89726 3.4185 23.8031
157 1 Ar 3.40623 6.54087 0.946588 0.362511 -0.374395 0.807919 -8.32459 -1.30679 -7.03494
173 1 Ar 2.53432 5.95654 1.21587 -0.0897235 2.09385 1.32364 -2.3569 1.22032 -9.95779
3772 1 Ar 3.76476 6.01297 1.7925 -0.323887 -0.099594 -0.978465 -13.0477 0.835132 -0.194659
893 1 Ar 3.64228 4.2622 1.15237 -0.449391 -1.02209 0.614772 6.51311 0.219184 2.72771
3732 1 Ar 3.89264 5.45397 0.786693 0.607274 0.974314 -0.22935 -19.1523 -3.16051 -1.82734
174 1 Ar 5.73615 5.13769 16.6114 -0.431347 0.208882 0.235846 -4.78236 8.57784 20.5468
3775 1 Ar 5.5989 5.27846 15.6166 -1.34871 -0.16393 -0.805777 -12.1632 9.84544 -22.9736
130 1 Ar 5.78366 5.25163 1.02409 1.09813 0.825691 -0.0495418 -16.34 11.7404 -5.07418
3296 1 Ar 6.68194 5.21309 0.265847 0.0471875 0.18747 -0.241105 9.13448 -13.2457 -9.80682
3727 1 Ar 6.10428 6.09976 15.2322 0.0489665 1.22829 -0.0717875 5.46756 13.7945 -0.74705
90 1 Ar 6.47312 4.49632 1.04941 -0.615592 -1.88065 0.342078 14.0171 -9.37531 4.95765
573 1 Ar 6.48305 5.99106 16.2388 1.03367 -0.3688 -1.1581 -13.0553 -5.83128 -6.4368
3735 1 Ar 7.33313 5.27242 1.18073 0.120267 0.999586 0.821455 -16.3213 -5.59149 7.69095
3740 1 Ar 8.07304 5.05901 0.49889 0.996766 -0.284438 0.144441 2.73637 4.22808 -43.9466
219 1 Ar 9.20249 5.90832 0.250579 0.255515 0.361672 -0.709539 -14.3841 1.04273 34.5408
538 1 Ar 9.13161 4.1648 0.911542 -0.740555 0.288053 -0.140745 -1.28994 -0.132555 1.80051
140 1 Ar 9.33894 4.8037 15.7385 0.0525969 -0.910242 -0.611707 -1.0863 -25.5472 11.4203
539 1 Ar 11.1424 6.11099 2.08855 1.00948 0.263985 0.712207 -1.13191 0.633673 -15.6512
506 1 Ar 11.2354 4.57091 0.924235 -0.76129 -0.0364987 1.77228 -7.67855 -4.89917 -7.9021
148 1 Ar 11.3671 5.68429 0.936638 0.114966 0.326926 1.20607 16.5092 7.10056 -0.310414
189 1 Ar 11.8204 3.91173 1.4944 0.00869198 -0.0544727 -0.325997 -5.10633 25.2359 4.37804
190 1 Ar 13.4781 5.45953 0.113711 -0.574988 0.318661 -0.420968 -1.2064 -9.40889 -22.9106
156 1 Ar 12.0907 5.08608 1.39142 -0.0355058 -0.208876 0.539496 8.88194 -3.25912 -11.2805
989 1 Ar 12.5443 5.75567 0.562581 -0.905122 0.173481 0.0483674 -13.7406 -3.45203 14.4605
596 1 Ar 13.3118 4.37126 1.76687 -0.295202 1.0465 0.241546 -7.55501 -8.65316 7.42612
196 1 Ar 13.4148 5.6157 1.11215 0.349626 -0.251596 0.486348 -3.60158 13.5542 31.6134
151 1 Ar 13.7139 4.6612 0.86269 0.0268865 0.00292399 -1.25679 4.68633 -11.1727 -17.2318
559 1 Ar 14.4356 5.66024 0.880592 0.840946 -0.653134 -0.354888 -3.59181 -1.81029 -4.73873
200 1 Ar 0.108087 5.31101 1.29414 0.545015 0.549634 -0.426326 -0.881118 5.79956 -0.127136
561 1 Ar 15.6265 5.42549 1.01429 0.000962121 0.917387 1.94422 -3.24178 -18.6145 21.958
518 1 Ar 16.0876 5.83362 1.89395 0.0271095 0.0355876 0.343027 1.49949 3.61503 1.7607
564 1 Ar 0.13867 6.53917 1.42621 -0.743564 0.215123 0.453921 16.6701 -7.9024 -0.256321
3803 1 Ar 16.6446 8.59857 16.5516 -0.57528 1.19177 -0.266555 40.5137 3.08205 41.7703
609 1 Ar 2.66376 6.85436 1.71524 0.0566131 0.280526 -0.255044 5.42179 -6.67677 -2.82932
126 1 Ar 1.33604 6.98143 0.147619 -0.280187 -0.588589 0.031817 -0.762064 -1.53329 1.63497
1010 1 Ar 2.40529 6.74946 0.446283 -0.1135 0.804158 1.13034 -5.07875 14.7284 2.71804
210 1 Ar 2.77429 6.14409 2.51957 -0.80277 -1.69547 -0.307089 12.7287 30.4705 19.4957
211 1 Ar 4.42794 6.48286 0.820882 -1.27025 0.521504 0.303158 -12.3851 1.33124 13.9994
566 1 Ar 4.75548 5.77393 0.0261092 0.0593004 0.0429987 -0.856988 -18.5067 -15.2268 24.251
653 1 Ar 5.4265 6.35512 0.671422 0.502624 0.295461 0.64577 11.1631 -13.0436 13.4362
178 1 Ar 4.68627 5.61914 1.37873 0.554868 1.11669 -1.50574 9.44064 14.3199 -23.5513
3817 1 Ar 5.84706 6.85859 16.6905 1.34811 -0.97623 0.785405 14.0077 2.42215 -8.686
3774 1 Ar 4.74458 6.92054 16.7444 -0.0143373 -0.164667 0.0812545 21.6961 0.768002 -19.7506
621 1 Ar 5.41884 7.84787 16.6832 0.193006 1.26632 -1.00789 -4.09892 0.76529 10.7253
3375 1 Ar 6.55672 6.04434 0.845024 -1.36793 1.81428 -0.959114 -11.3692 5.76475 21.3163
3780 1 Ar 7.37472 7.9459 15.9497 -0.523231 -1.60436 -1.04107 7.77218 -3.54801 -3.79956
613 1 Ar 7.67547 6.23034 1.44305 0.572917 1.55082 -0.554977 3.80179 12.7112 -5.4495
3859 1 Ar 8.13342 7.40051 0.735043 -0.757038 -0.473328 1.13751 0.58578 -4.33159 0.957161
215 1 Ar 8.22604 6.28722 0.321846 -0.442981 0.901788 -0.0828738 -7.97298 1.17434 4.6477
544 1 Ar 9.89334 6.2078 0.980817 0.0617231 0.439612 0.114094 -0.422801 -5.13438 38.1642
3836 1 Ar 10.7767 6.97391 0.662456 -1.27101 -0.512253 0.11926 -3.83221 5.82859 5.90559
183 1 Ar 9.00568 6.86183 1.02212 -0.648973 0.0307861 -1.24556 -1.56296 0.424538 -5.4805
623 1 Ar 9.75432 7.49882 1.41582 -0.524759 0.293822 -0.0884735 17.3837 -0.681417 8.51937
192 1 Ar 12.2746 6.2441 1.5951 -0.197956 -0.567701 0.34819 -0.860465 -1.85555 -4.88872
187 1 Ar 10.8136 6.6949 16.3119 0.500407 0.292228 -1.02606 13.5221 -10.0786 -2.97995
588 1 Ar 11.1352 7.9043 1.89488 0.549588 0.621416 0.0563305 14.5796 13.5303 -5.36712
950 1 Ar 11.6573 6.52289 0.256808 0.318777 -0.276011 0.0796127 -15.0852 -21.7121 28.0782
193 1 Ar 14.7855 6.74271 16.7504 -0.730785 0.347048 0.21572 -7.85449 40.0547 7.17675
993 1 Ar 12.7842 6.96284 0.519861 0.967794 0.885231 0.723349 -8.17482 -19.8221 20.8386
960 1 Ar 15.1119 6.40035 1.08225 -0.419804 0.356271 0.644157 3.32526 -2.00245 9.25289
3798 1 Ar 14.9802 7.38771 0.821355 1.80129 -0.232243 0.263412 -0.941532 16.4771 0.505463
557 1 Ar 13.7598 6.45772 0.431754 0.701359 0.693115 -0.0605587 -4.49646 -5.71496 -17.4277
590 1 Ar 15.6021 6.53073 16.1534 -0.0167474 1.35597 0.321129 4.00201 43.4082 -7.6758
158 1 Ar 16.638 7.58988 0.952913 0.0535586 -0.603927 0.94184 32.6341 -13.724 -39.438
605 1 Ar 16.2765 6.16878 0.633835 -1.56405 -0.335009 -1.76142 7.13635 7.7232 13.53
602 1 Ar 1.92281 7.71074 16.4355 1.41619 1.01299 -0.116007 -35.5574 -23.8673 -24.5167
922 1 Ar 0.68213 7.99423 0.225227 -0.47701 1.26889 0.571803 3.1507 -3.17993 8.647
201 1 Ar 1.09872 7.58539 1.29854 -0.2481 -0.25048 -1.16871 -6.2244 7.4483 -27.2702
167 1 Ar 1.95365 7.8286 0.69973 1.03592 -1.98812 1.65718 6.65612 -2.24535 2.01807
612 1 Ar 2.8079 7.8848 -0.0378575 -0.62758 -0.827312 -2.04377 47.396 -1.61601 27.0144
243 1 Ar 3.90083 7.32095 0.302095 0.651047 -2.29649 -0.786634 -18.8697 6.45851 13.2139
652 1 Ar 3.63745 8.34102 0.482098 -0.075015 -1.06557 1.34977 13.7947 -37.3231 -22.9524
3016 1 Ar 4.7769 8.17722 0.774236 -0.392217 -1.12489 -0.449014 -8.6866 -2.07003 -0.792089
297 1 Ar 5.71299 8.96747 0.159357 -0.233441 1.14024 0.248514 -3.13202 -11.1693 7.26177
569 1 Ar 5.16792 7.31214 1.6452 0.476723 0.754648 0.144687 10.6852 9.88588 -9.52321
220 1 Ar 5.76013 8.09955 1.10029 0.0820213 0.13241 -0.242911 9.28521 -0.948362 5.74164
1414 1 Ar 4.49833 9.24681 0.841013 -0.172891 0.962586 1.75395 12.0591 -10.6242 -11.9887
3779 1 Ar 6.66631 7.55651 0.217405 -1.59289 0.655335 -0.324878 -51.407 -41.1691 5.57282
218 1 Ar 6.64161 8.46337 16.4799 0.0151565 0.221012 -0.950734 -10.7664 20.0619 -8.91038
141 1 Ar 8.80472 7.92599 1.4068 -0.442438 -1.0428 -1.63142 11.3127 6.11212 -3.38851
224 1 Ar 8.60424 8.3147 0.196443 0.333999 0.238953 0.610213 -10.5242 2.62469 0.822371
184 1 Ar 9.95059 8.56462 1.90529 0.483478 -0.0847165 -1.70308 -37.6046 -13.1567 -9.73216
586 1 Ar 10.7726 9.02974 1.40208 0.982959 2.67095 0.0460787 -8.69679 -6.63495 -8.20348
3787 1 Ar 10.7448 10.1153 1.06421 1.23968 1.4234 -0.483548 -31.5376 9.08266 2.263
3739 1 Ar 9.82614 8.81765 0.9067 1.5769 0.586236 -0.810264 -3.06066 0.528766 -0.104375
229 1 Ar 11.5305 8.04081 16.5732 0.629246 0.435527 -0.424128 -2.79446 -7.05511 -0.398591
625 1 Ar 11.9958 9.21245 2.89115 0.382258 -0.654918 -0.0880661 -16.9604 3.65356 -12.3605
186 1 Ar 10.8456 8.04375 0.849456 -1.09243 -0.0674114 0.227409 -3.96939 3.9462 -4.08806
152 1 Ar 11.9686 8.38616 0.73117 0.464726 0.969865 -0.85786 1.02152 -1.23382 5.67625
197 1 Ar 13.3325 8.67056 0.57614 -0.548173 0.649091 0.136981 -5.29866 -8.19851 0.940277
636 1 Ar 12.6606 9.34078 1.20145 1.41249 0.855402 -1.21956 -19.6726 8.45279 -14.0791
231 1 Ar 12.7798 8.04546 16.6956 -0.871184 0.55894 1.90132 -20.6167 7.39457 25.1706
237 1 Ar 13.5957 7.55114 0.53465 0.165453 0.615025 0.832215 4.28206 -5.4464 -24.3292
3439 1 Ar 14.4512 8.70264 0.314363 -0.255726 0.964969 0.870018 -28.6001 -7.01627 44.1756
3395 1 Ar 14.9997 7.8973 16.5666 -0.0545471 1.1595 0.239509 -8.67853 -6.247 -5.83838
3790 1 Ar 15.8637 7.04033 0.209007 -0.331423 0.996039 -0.0307159 -24.2127 -15.3541 24.9578
3808 1 Ar 0.243481 8.91266 0.688403 -0.588452 -0.155661 0.578426 -14.0772 -5.2872 -9.86405
164 1 Ar 0.334274 8.36317 1.60844 0.458774 -0.319672 -0.116071 8.30332 3.57126 3.61113
717 1 Ar 2.39191 8.90298 0.44129 -0.145761 0.686137 0.963396 -2.77001 -0.218221 -2.03212
608 1 Ar 1.33628 8.68632 0.932845 -1.49935 0.0489289 0.260346 8.53879 -16.7592 -8.60303
207 1 Ar 2.43463 8.4679 1.48792 -0.278936 -1.12128 0.703545 5.48033 7.41431 -8.52267
206 1 Ar 1.94099 9.48565 1.44057 1.01226 -0.102491 -0.433191 3.58313 0.0192113 3.79178
204 1 Ar 3.7481 8.56857 1.47151 1.15636 0.203775 -0.142742 1.93299 5.32012 12.66
649 1 Ar 3.62948 9.88245 16.7872 0.350522 -0.611643 0.536317 4.02855 18.3872 -3.73728
689 1 Ar 3.32169 10.9258 0.50055 0.246961 -0.0722079 -1.17721 15.8209 2.63264 -5.11926
1082 1 Ar 3.04723 9.38506 1.74761 0.639747 -0.520261 -0.700403 -1.7047 1.76992 4.1734
1049 1 Ar 3.94092 8.67383 2.50488 -0.859937 0.235529 0.41946 -3.12142 -3.33523 -13.3201
638 1 Ar 4.02069 9.90153 1.44207 -1.03842 0.565424 0.0351672 -15.1227 9.09608 9.10344
217 1 Ar 4.62408 10.4263 0.487916 -0.338442 -1.40257 1.32733 -29.8359 7.7851 15.7472
1020 1 Ar 5.89111 9.15363 2.20251 0.0462923 1.38045 0.0397681 -6.64843 6.22654 3.88449
175 1 Ar 5.84462 9.48239 1.14627 -0.983559 -0.397067 -1.09987 1.13539 -0.691416 -1.91801
1051 1 Ar 5.01117 10.259 1.54139 1.33333 0.398539 0.844928 0.804513 -13.3436 -8.19143
258 1 Ar 6.30127 9.52272 16.2494 -1.54031 -1.15408 -0.28151 -0.443034 -9.20468 10.1982
3904 1 Ar 6.99119 9.7579 0.570751 -0.803818 0.966132 -1.42125 0.0875218 16.3814 -55.1452
628 1 Ar 7.46538 8.06205 0.237247 0.47955 -1.30022 -0.822272 58.4844 36.0213 3.44858
665 1 Ar 8.22789 9.79764 0.33474 -0.548356 1.21297 0.0549315 1.52226 -6.47323 11.905
3784 1 Ar 8.8243 9.15477 0.960936 1.20401 0.732857 -0.417614 37.5185 11.43 1.48814
222 1 Ar 9.20073 9.20084 16.6868 1.59502 -0.72859 0.36308 -4.04204 2.61081 3.83353
672 1 Ar 11.12 10.9358 1.60791 -1.05263 -0.965602 0.584624 -18.6368 1.02395 -9.13373
303 1 Ar 11.3868 9.81322 2.08601 1.6034 0.139463 0.591431 -3.45887 2.64003 2.28334
3796 1 Ar 12.5157 9.80919 2.17446 -0.381923 0.841217 -0.481712 1.59565 -1.7914 4.88518
669 1 Ar 11.547 9.5495 1.03136 0.307327 0.849452 -1.30892 50.6172 -0.746958 -5.77549
195 1 Ar 12.3714 9.11353 0.114838 -0.156661 1.37377 -1.50295 4.58751 10.3973 -5.81307
271 1 Ar 12.8124 10.2896 0.594453 -1.13309 -1.07843 1.11401 1.33556 -15.0078 -5.60499
1072 1 Ar 14.0276 11.2897 1.67429 0.156603 1.68557 0.159791 -7.97452 -14.4855 10.1439
194 1 Ar 14.3299 9.90701 0.14137 0.131178 -1.03511 -2.27027 -5.76576 10.9758 -29.7732
353 1 Ar 13.4037 8.92158 1.72584 -1.52089 1.13975 1.1751 13.115 -21.8225 -33.4917
720 1 Ar 14.4433 9.00097 1.44141 -0.682084 -1.69462 0.492715 8.41667 10.1583 -2.61488
279 1 Ar 1.46735 9.69347 0.482303 -0.181555 0.308393 0.589322 6.08929 -3.7718 10.5271
199 1 Ar 16.3514 9.72013 1.33115 -0.300202 1.20221 1.76226 1.56893 -4.16088 8.76823
3795 1 Ar 15.2719 10.1054 16.3916 -0.737811 0.431757 -0.214228 4.70362 2.68959 4.88106
277 1 Ar 0.678022 9.41273 16.6036 0.901626 -0.365335 -0.417145 -1.88718 -0.173745 23.4596
212 1 Ar 1.25186 10.984 0.738375 0.920931 -0.690942 0.996277 13.9365 -11.12 -0.95629
241 1 Ar 0.568562 11.7215 0.53538 -1.0385 0.406685 0.516056 -9.41631 6.8298 -10.0833
3887 1 Ar 0.0465126 11.4143 16.3812 -0.163548 0.192282 0.156715 14.3315 -14.6227 -0.255497
3888 1 Ar 1.34131 10.282 16.4489 0.771605 0.877357 -0.15082 4.22155 14.6048 -7.05354
685 1 Ar 1.48097 11.6356 1.61883 -0.390573 -1.14626 -0.348138 -8.44771 -6.22847 -2.41993
247 1 Ar 2.69862 10.1343 0.784653 -0.287371 0.369791 0.602827 -0.27205 -16.5574 1.48802
287 1 Ar 3.25548 10.6411 1.61113 -0.415378 -0.00386334 0.701499 6.2875 7.00332 -11.5485
3879 1 Ar 0.784737 12.5235 16.5881 0.333988 -0.401935 -0.954994 2.3086 -1.86128 0.547341
648 1 Ar 2.20456 10.7513 0.0631198 0.837388 -2.0785 0.740355 -2.35283 4.73677 -6.74459
1056 1 Ar 3.45999 11.8441 1.14004 -0.86262 -0.506518 0.225226 -2.56089 -6.21347 -1.06883
3895 1 Ar 6.47389 11.9406 16.5237 -0.0221568 -0.0308707 2.5397 -3.21015 3.04578 -2.01621
294 1 Ar 6.51242 10.4989 16.663 -0.467534 -1.05762 -0.667795 -0.0946477 1.89914 -2.68294
257 1 Ar 6.9607 11.3413 15.672 -0.960592 -1.50761 1.63269 -7.81746 -2.47959 -6.34841
650 1 Ar 5.92951 12.8761 0.733423 0.278011 1.43046 -0.138231 -6.51266 -21.8648 -7.42892
1059 1 Ar 6.35663 10.4966 1.19243 -0.2322 0.511809 -0.413666 -44.9681 -2.31811 -12.1047
259 1 Ar 6.73699 11.3207 0.56538 -0.178259 -1.61798 -0.128577 5.28375 2.28606 6.4926
668 1 Ar 10.3555 11.0179 0.57272 1.31353 0.00928606 1.19947 -11.8534 -11.0231 -3.42105
293 1 Ar 7.47322 9.82217 16.3689 -0.2153 0.263079 -0.825803 -15.0876 9.68363 -2.83028
3867 1 Ar 9.16316 10.4297 0.254122 0.396133 -0.167653 0.280068 -11.002 -14.6097 14.312
232 1 Ar 9.05435 11.4457 0.114225 -1.57705 0.774791 -1.09139 -0.358095 13.8567 16.9835
626 1 Ar 10.4828 12.012 0.889945 -1.10435 -1.70958 -0.164514 2.35492 -5.96364 10.6544
3512 1 Ar 11.4532 12.7617 0.891328 -0.0768415 0.264281 0.172919 3.13045 -8.99072 0.762283
3832 1 Ar 10.6101 12.0543 16.6119 -0.342807 -1.17172 1.09881 -6.22616 3.58511 0.231653
996 1 Ar 13.6595 9.61101 0.82739 -1.26806 -0.222578 1.13733 -5.85615 4.19603 16.6804
309 1 Ar 12.1604 10.441 1.42829 0.585741 0.673264 -0.0311994 -9.09442 -4.7944 -10.2027
3866 1 Ar 11.3117 11.4193 0.396102 -0.180301 -1.67742 -0.829374 11.6776 1.87095 0.312203
270 1 Ar 12.8191 11.2031 1.13081 0.947628 -0.683431 -0.376247 12.7819 2.87264 -7.72657
351 1 Ar 12.4005 12.2046 0.821464 -0.220579 0.540328 0.713396 -1.37985 2.42043 -3.47042
671 1 Ar 14.6516 10.999 0.277799 -1.07628 -0.473635 0.683932 15.6537 4.89521 0.00972554
3876 1 Ar 15.2119 12.0406 0.126043 -0.938011 0.7756 0.0498962 -1.44222 9.57443 9.3015
1033 1 Ar 15.4085 10.3453 1.84448 0.210261 1.28729 0.021993 0.421569 -13.472 -4.73688
360 1 Ar 13.8471 11.8793 0.85406 -0.998739 -1.07994 -0.526464 6.49028 16.5228 -0.569268
3875 1 Ar 14.2002 11.8629 16.5099 1.30863 1.41879 -1.09967 2.46353 -0.276017 -5.69671
315 1 Ar 15.1028 9.75951 0.726176 -0.227364 -0.7379 1.30223 19.3477 3.63046 18.345
275 1 Ar 15.8322 11.1036 0.235355 0.861299 -0.600629 0.0218635 -7.18773 5.13603 -21.7162
321 1 Ar 16.1787 11.8787 1.54848 -0.176189 1.11922 -1.13301 -16.1431 7.98008 5.03303
288 1 Ar 0.0334903 12.5806 0.983967 0.333409 0.0772222 -0.60004 11.5237 -4.34368 -7.72916
726 1 Ar 16.3527 12.1935 0.0173516 -1.65836 -0.127771 0.397869 -7.80797 13.7092 5.84714
245 1 Ar 1.69751 11.9044 0.419013 0.527249 0.243323 -0.339386 -3.05904 7.96222 -12.9501
766 1 Ar 2.24896 12.5549 16.3015 0.922675 -0.506739 2.2087 -2.51646 8.10082 5.30997
3892 1 Ar 2.39888 12.1495 1.55585 0.623101 -0.829617 -0.184507 -19.1995 -8.40693 7.17811
3925 1 Ar 3.14062 13.4988 0.880256 -1.6365 -0.822959 -0.22126 -3.53189 13.7826 -15.1731
1090 1 Ar 2.45008 11.3636 0.869576 -1.21663 0.600243 0.0269897 9.789 5.20191 5.07363
686 1 Ar 2.72382 12.4564 0.475209 1.05069 0.0691191 -0.0637721 -3.49111 8.09826 16.1505
1089 1 Ar 4.46496 11.9243 0.709171 -0.0654222 1.14179 0.920669 3.83524 -5.37663 -14.7359
1456 1 Ar 4.99238 13.4652 0.0893327 1.2241 0.714022 0.469368 0.24903 -3.38149 1.54348
729 1 Ar 4.34105 12.3885 16.5665 1.79421 -0.822065 -0.430306 -3.44649 6.34283 -21.0265
332 1 Ar 5.84396 13.8516 1.05067 -0.554425 -1.03152 -0.140723 7.39071 20.8453 -8.55619
1094 1 Ar 6.624 13.4344 0.206075 0.134438 0.902845 -2.18467 9.6502 5.48365 -6.6846
3900 1 Ar 6.97486 12.5004 0.652848 1.06021 -0.0754135 -0.342362 -3.4353 -5.61063 1.27051
3937 1 Ar 8.23104 12.5724 15.641 0.439074 -0.428772 0.856142 15.8827 -16.1384 11.4908
295 1 Ar 8.66592 12.3792 16.5339 -0.588521 0.224727 -0.0336986 1.65969 0.23509 12.5631
302 1 Ar 7.91812 11.7072 0.382736 -0.312742 -1.16574 -0.413379 -1.67704 22.33 13.1031
662 1 Ar 9.44656 12.3691 0.536891 3.09805 -0.889436 -0.95808 4.80376 8.64165 1.74972
707 1 Ar 10.3933 13.0307 0.917983 0.696185 0.169962 0.240061 -7.66383 4.15187 9.55165
749 1 Ar 11.7966 13.5998 1.49872 -0.151321 -0.0085683 -0.369652 -5.50194 6.57745 -2.96939
747 1 Ar 9.40906 13.3056 1.37164 -0.912389 0.334992 -0.34664 -19.8755 15.3469 -25.0898
346 1 Ar 11.0857 13.6259 0.403952 -0.0764592 0.506865 -1.31124 5.60227 12.5695 -0.161747
385 1 Ar 11.964 12.8561 16.6449 -1.61095 -0.151794 0.805615 1.94751 1.97386 3.97094
3392 1 Ar 10.9424 13.1336 16.2769 -0.353621 -0.0462446 -0.147668 -2.22539 -12.7617 3.81439
306 1 Ar 12.0958 12.6723 1.89487 0.790049 0.873967 1.1309 36.4935 13.0662 -29.3609
354 1 Ar 13.184 12.6132 0.257075 -0.520604 -0.703843 0.119753 9.33626 5.61302 -7.89488
387 1 Ar 12.712 13.3973 0.87185 1.30466 -0.110184 -0.893347 -12.9458 -7.63655 20.0134
391 1 Ar 12.9948 12.0202 1.75507 0.295823 -0.110248 0.270455 0.200485 8.1456 3.92969
3959 1 Ar 14.3236 12.8534 0.199096 -0.401075 0.0706173 -0.731712 0.415256 -23.1041 7.3513
393 1 Ar 13.798 13.2589 2.90146 0.755169 0.241807 -0.921465 0.473906 3.39317 -3.8363
684 1 Ar 15.2232 13.541 1.44938 1.39567 0.162899 0.688846 6.27671 -11.7962 5.37868
318 1 Ar 15.7682 12.657 0.855379 0.815677 0.592102 1.51376 -3.31148 -12.2895 -8.91847
317 1 Ar 16.0728 13.6316 0.726496 0.587195 -0.789251 -0.598211 9.59041 8.71608 -30.9045
3884 1 Ar 15.2995 11.4496 1.09531 0.195982 0.813445 -1.39998 -6.24588 0.133296 2.95354
368 1 Ar 0.451225 13.6082 0.517341 0.517443 -0.0644219 0.123749 -32.8653 -0.138528 -13.4943
282 1 Ar 1.46728 14.5871 0.27839 -0.903853 0.753847 0.44659 -31.9449 -16.8857 0.28197
362 1 Ar 2.33476 13.9857 16.1355 -0.752305 -1.49828 -0.883548 -31.5022 -16.0744 -12.2382
361 1 Ar 2.20611 13.568 0.252477 -1.45693 0.760713 0.0290196 0.117151 -23.91 12.525
3 1 Ar 2.26041 14.4382 0.949708 -0.980751 -0.857006 -0.783249 -8.87347 -4.15334 20.1545
371 1 Ar 2.91115 14.2768 0.18677 1.26796 0.806515 0.151122 29.5568 22.7947 -14.4718
762 1 Ar 4.21028 13.9118 0.947844 1.15757 -0.296552 0.573119 2.85805 3.81181 24.8949
773 1 Ar 4.17546 13.6571 15.6163 -0.0322169 -1.12799 -0.288669 -43.7126 4.83135 3.68718
736 1 Ar 5.24821 14.5712 0.560683 0.286079 -0.796073 1.00023 -11.0158 -5.69885 -1.57295
3977 1 Ar 5.33057 16.4671 1.57983 -1.35977 -0.294109 -0.90668 5.583 52.9946 -40.3911
3580 1 Ar 5.95181 14.8242 1.57065 -0.288445 -0.82489 -0.207359 1.02577 -2.59378 -13.878
333 1 Ar 5.95537 14.1465 16.3976 -0.128657 -0.0825985 0.548608 23.2592 -21.2516 0.401516
733 1 Ar 6.88478 15.5909 0.496017 -0.0930252 1.32007 -0.892199 -11.5623 10.5315 19.2865
694 1 Ar 6.65538 14.511 0.305089 0.477136 0.197428 -0.384589 -1.42163 4.33299 1.43656
3940 1 Ar 7.03212 14.8305 1.24734 0.398995 1.62452 0.260111 2.73587 -4.72008 1.6269
296 1 Ar 7.80542 13.4217 0.475112 0.21078 0.191421 0.581781 -17.434 9.11713 -12.0783
305 1 Ar 8.83192 13.3 0.331981 0.00695123 0.680568 -1.52208 3.34312 -0.303072 -0.00482651
337 1 Ar 8.3486 14.9964 1.14526 -0.212886 -0.347592 -0.657163 11.74 10.7954 14.7449
3944 1 Ar 9.35358 0.465823 1.45825 -0.614603 0.257171 -0.208113 -11.3636 5.53288 4.99641
342 1 Ar 9.24434 15.4486 0.350389 -0.74038 -0.524423 0.409392 9.52638 13.3332 11.43
788 1 Ar 10.6136 15.865 1.26148 -0.216303 -0.55747 -0.398641 19.8064 27.9879 -14.0821
746 1 Ar 10.0115 15.0696 1.00403 1.55182 -0.419899 0.552508 -7.7642 -9.94973 5.64575
350 1 Ar 12.1832 14.433 0.391339 1.20906 -0.563516 0.801755 -20.5689 0.0773023 -6.10505
381 1 Ar 11.1168 14.7176 0.307975 0.367383 0.4011 0.683162 -3.66973 5.92235 -4.20196
352 1 Ar 11.2217 14.7689 1.42524 0.518292 -0.982467 0.0659703 1.51356 -5.25596 -2.96098
3912 1 Ar 13.7048 13.7067 0.755578 -1.05842 0.536387 1.1376 7.74284 10.3399 -8.87125
3591 1 Ar 13.8863 12.9133 1.40923 -0.033666 -0.767342 0.318549 -3.23517 -9.9966 -3.39564
39 1 Ar 14.6371 14.3038 0.985765 -1.14383 -1.27898 -0.950443 -13.2315 25.2456 1.98369
681 1 Ar 14.0605 15.3152 0.728476 1.4348 -0.00543792 0.081045 1.07341 -12.4474 -23.0152
357 1 Ar 15.57 14.4732 0.429498 -0.227314 -0.0775736 -0.0904642 -10.0639 22.3054 14.143
798 1 Ar 0.404792 0.337385 1.25072 -0.184386 0.0326504 -0.987967 6.86651 4.44078 9.54857
3640 1 Ar 0.594147 16.2596 16.6675 0.396698 -0.184287 -1.55323 -7.53152 11.3445 0.34282
765 1 Ar 16.5604 16.584 0.634971 0.0348972 0.728076 -0.0450712 -3.24457 -12.0911 -1.78165
49 1 Ar 2.01101 15.4925 1.01239 -0.553604 -1.52828 -0.877589 -12.3643 6.87282 17.9125
364 1 Ar 2.21722 15.1886 0.0556919 0.431064 1.22127 -0.184805 49.8242 -16.5876 -8.91474