ITEM: TIMESTEP
8000
ITEM: NUMBER OF ATOMS
4000
ITEM: BOX BOUNDS pp pp pp
0.0000000000000000e+00 1.6795961913825074e+01
0.0000000000000000e+00 1.6795961913825074e+01
0.0000000000000000e+00 1.6795961913825074e+01
ITEM: ATOMS id type element x y z vx vy vz fx fy fz
446 1 Ar 1.25499 1.40751 0.994259 -0.0674145 -0.864288 -0.5215 26.581 10.2615 -25.9214
3966 1 Ar 0.30929 0.488723 0.395966 0.612924 0.481751 0.824073 13.0746 -3.29419 -8.36863
439 1 Ar 0.210909 1.54178 0.940598 0.26289 0.342047 -0.588212 -8.24119 -5.46958 0.548087
91 1 Ar 2.84165 0.278574 0.818522 1.13307 -1.13735 0.398206 -4.44903 -17.659 -1.12398
12 1 Ar 1.89236 0.160168 1.23063 -2.1067 -0.0741299 -1.0971 -3.50534 2.93419 13.5404
761 1 Ar 2.69074 16.0931 1.31803 0.798044 0.540019 -0.400089 7.17215 -0.477332 -6.31509
93 1 Ar 3.63058 0.318042 1.62461 1.33124 0.164009 -0.174738 -1.74561 -21.1623 -10.8238
1170 1 Ar 4.14528 1.56795 0.116686 -0.5135 1.20063 -0.824657 -5.8627 -4.91231 -5.43546
811 1 Ar 4.08721 1.64332 1.49291 0.856454 -1.44774 -0.618895 4.7979 6.63913 -1.20408
457 1 Ar 5.28622 1.35214 1.4711 -0.531073 1.51916 -0.326688 -8.40269 -16.898 16.1075
500 1 Ar 5.17343 1.52876 0.509832 -0.119221 -0.556438 0.840099 -6.40913 14.8118 -27.6737
3975 1 Ar 5.45635 0.671997 16.7892 -0.0670115 -0.0891911 0.00208846 1.24925 -12.6449 -7.91161
460 1 Ar 7.03489 16.7748 0.91492 0.604114 0.748402 0.702376 12.34 -15.8112 0.942606
334 1 Ar 7.14312 1.02121 1.08471 -0.210797 -0.864169 0.0841199 22.7291 -2.07957 33.6914
95 1 Ar 6.27977 1.5243 0.927284 0.984214 0.17368 -0.036535 -18.1614 19.0627 3.7522
780 1 Ar 7.60572 0.624827 0.131803 -0.439615 1.43763 1.30971 -2.71123 -15.458 30.6804
383 1 Ar 8.15225 1.0958 0.872151 -0.949752 0.084832 1.05973 18.4441 6.74348 5.83301
384 1 Ar 8.70145 0.532436 0.0951736 0.509738 0.195586 -0.96111 14.4148 -23.1876 15.6489
63 1 Ar 10.5059 1.46113 1.65158 -0.596191 0.6086 1.51983 11.693 -0.196743 -19.6916
505 1 Ar 10.034 1.05037 0.635632 0.0963641 -1.61434 0.288538 7.82377 -12.8032 1.21617
379 1 Ar 9.33182 1.48701 1.24996 -1.55965 -0.640642 1.34773 1.65014 2.47579 8.26487
23 1 Ar 9.9399 16.6933 16.7282 -0.377333 0.6514 0.702942 5.32463 2.12824 -1.47544
3625 1 Ar 10.9082 16.4986 0.501208 -0.51877 0.577883 0.891325 1.3376 -1.83641 -2.6456
469 1 Ar 12.7491 1.55063 0.991741 0.111988 1.00895 0.635605 -1.90677 -7.6297 -12.2207
474 1 Ar 11.0824 0.352737 1.3242 0.0839609 -0.447252 -0.780408 -3.88688 14.456 -2.2336
473 1 Ar 12.7485 0.762452 2.11907 0.0478999 -0.230493 -1.11607 -4.92699 3.06571 -3.17857
34 1 Ar 13.7122 16.1746 0.0890269 -0.892068 -0.350163 0.361058 -12.7453 -16.0169 24.028
71 1 Ar 13.558 1.52656 0.204479 -0.425698 -0.659839 -0.220492 -73.7575 39.922 3.85172
79 1 Ar 15.0498 0.968824 0.997116 0.945321 0.257495 0.0225875 -20.2305 -3.34774 -12.7481
33 1 Ar 14.3432 1.02515 0.209766 1.45821 0.204147 -1.20019 65.7828 -10.6638 -20.8764
434 1 Ar 16.2202 1.86279 0.305448 -0.0525318 0.300055 0.246455 11.2907 -3.78772 2.15339
437 1 Ar 16.0218 2.10828 1.65598 0.43953 -1.78953 1.25148 -24.2327 -14.0452 -17.1532
438 1 Ar 16.2273 0.749771 0.882369 -0.444694 0.813879 -0.885578 -8.00712 7.21525 8.59027
83 1 Ar 15.3566 1.50983 16.6473 0.791235 -1.37477 1.32138 -16.6802 8.55035 0.425897
442 1 Ar 1.74146 2.13744 0.297511 1.09799 1.25774 -0.479477 21.7387 -10.7805 -1.93648
481 1 Ar 0.811727 1.5698 16.6952 -0.465785 -0.724182 -0.878036 -14.3915 -10.3519 12.3474
402 1 Ar 16.4652 3.69465 1.24793 -1.46696 0.185359 -0.0988472 7.16578 -1.27202 21.2201
485 1 Ar 0.34742 3.55646 2.13543 -0.327032 1.35025 2.20225 2.15758 -4.54201 1.35213
487 1 Ar 1.76798 2.18516 1.45341 0.794646 -1.01282 -1.44262 7.92844 6.99761 -11.386
46 1 Ar 2.48464 1.36173 0.992493 -0.3128 -0.929925 -1.22882 -15.0956 0.825683 -2.64433
48 1 Ar 2.04385 3.07303 0.742742 -0.0186392 -0.116987 -0.521113 -19.3736 -13.2293 -3.57296
489 1 Ar 3.46903 1.06173 0.819202 -0.572705 -0.26314 0.466645 22.6599 16.2633 0.715928
413 1 Ar 4.10063 2.47497 0.646958 0.795554 1.81198 0.419522 8.42236 5.04349 -1.57302
1134 1 Ar 3.09431 2.25227 0.773921 -1.23136 -0.705137 1.54244 -10.814 -0.624711 1.16973
375 1 Ar 4.78525 2.7721 1.44772 0.615409 -1.14343 -0.447333 8.6443 -24.122 18.1381
529 1 Ar 5.20947 2.87566 16.7071 0.617071 1.17416 0.0692323 34.7853 16.883 20.4586
454 1 Ar 6.03854 1.71783 2.05503 2.02007 0.256643 -0.436866 6.896 11.3999 10.7468
64 1 Ar 7.44364 2.0173 0.911599 0.315837 -0.997511 0.548134 3.19424 -4.65432 -12.4725
493 1 Ar 6.97842 2.40308 1.77607 0.814333 -0.379693 -1.8095 1.54243 -1.42374 7.55637
894 1 Ar 6.25785 3.62728 0.218858 -0.44406 0.768493 -2.40529 10.2203 -16.9673 3.90471
3701 1 Ar 8.02227 2.26471 16.6975 -0.68189 -1.7345 0.494698 3.72058 -0.497563 4.00373
25 1 Ar 10.7843 2.40146 0.498495 -0.344426 1.06846 1.38131 -4.42776 0.731412 -10.5253
432 1 Ar 10.0114 2.37585 1.22308 0.909774 -1.31855 -0.820209 -6.45595 3.48289 5.90101
97 1 Ar 9.39029 2.58596 0.164417 0.691986 -0.0957047 -0.28028 -6.05341 -8.90014 6.28396
106 1 Ar 10.7477 3.27354 1.17314 0.0232324 0.905915 0.381516 2.03224 4.65576 -16.0702
912 1 Ar 11.5636 1.94979 1.03907 1.07274 -0.121563 0.0201621 9.53826 -3.75111 3.38352
32 1 Ar 10.3795 3.10364 2.11191 0.866469 -0.578537 -1.00263 1.89414 -2.64808 14.4167
29 1 Ar 11.7966 1.12629 1.78778 -0.576288 -0.367237 -0.344271 -9.47829 21.697 1.91237
513 1 Ar 13.3862 2.34973 1.02851 -1.0172 -0.590183 -0.265369 5.33175 12.7748 -14.8315
109 1 Ar 13.6833 0.838429 1.44672 1.06215 -0.00801011 -0.669925 5.21974 10.2629 -1.83608
36 1 Ar 15.2539 1.95713 0.813386 0.258817 0.319227 -0.340536 15.4337 14.5014 -0.523831
3674 1 Ar 15.234 2.98691 0.191017 -0.566135 1.10277 0.253137 -14.636 -17.0309 17.1789
553 1 Ar 14.8077 3.12951 2.24635 -0.0689471 -0.404283 1.6689 4.00563 3.45476 1.90369
3716 1 Ar 14.5214 2.67567 1.03066 -0.928755 0.662414 -0.242014 -26.8124 38.0459 -17.3916
441 1 Ar 0.0437623 2.57544 1.42534 0.338573 -0.726273 -0.026268 36.2206 20.9831 -13.3038
3683 1 Ar 15.4661 2.26128 2.53909 -0.428166 0.9401 -0.178781 -24.1979 6.44667 19.1016
42 1 Ar 16.186 2.86439 0.656281 0.557214 -0.753516 -0.116894 -0.0564007 -4.87459 -4.01572
523 1 Ar 0.584886 3.39067 0.770682 0.0177234 0.0485163 -0.969566 -2.12259 0.197401 -4.67521
163 1 Ar 1.74179 4.58226 0.245486 0.16364 1.38871 -0.0594357 0.327091 -0.630066 -0.907745
558 1 Ar 1.88748 4.02221 1.53814 0.421392 0.822959 0.154208 -2.52823 -12.0462 0.00839408
525 1 Ar 1.35662 3.60383 15.7002 0.425184 -1.79261 -0.713926 0.425831 1.79423 4.90933
486 1 Ar 2.51226 3.77091 16.7126 -1.48128 -0.852481 0.0431507 -20.3076 13.4493 -3.738
452 1 Ar 2.80105 3.70396 0.888137 0.0436519 -1.01915 -0.0260793 18.9338 17.4034 31.684
92 1 Ar 3.41183 3.2381 0.176162 0.813224 0.800598 0.583286 7.75762 -4.52964 -2.95184
129 1 Ar 4.5228 4.6643 0.717129 -0.773765 2.09178 -0.616141 12.3066 -5.12382 28.518
530 1 Ar 4.54774 3.45424 0.78145 -0.602984 0.505805 -0.111595 -21.9337 21.0483 -16.6269
3692 1 Ar 5.94566 4.57708 0.312375 -0.237617 0.0199789 -0.434762 -6.29142 8.99931 -11.9241
3731 1 Ar 5.07002 3.9676 0.0594488 -0.336794 -1.77267 0.692379 12.7709 -5.88996 -12.4403
3657 1 Ar 7.19829 4.37971 0.10896 -0.675682 1.01242 0.0590599 -4.45671 -8.85838 -11.0669
490 1 Ar 5.66317 4.18112 15.9157 0.884982 0.35896 -1.76257 7.66905 -14.7213 3.26877
3653 1 Ar 5.56612 3.64982 1.0176 -0.337923 -0.360729 -0.168448 7.48844 6.11064 -2.98479
3695 1 Ar 8.3388 3.31313 0.309363 -0.742634 1.3427 1.748 22.3565 -5.8959 -2.49834
61 1 Ar 8.39261 3.65714 1.61555 -0.584917 0.788217 -0.0295614 11.8264 -9.76321 29.0128
898 1 Ar 7.72913 3.0061 1.10998 -0.210301 1.31965 -0.568125 -1.24264 -15.7706 15.9978
100 1 Ar 9.09232 3.05884 1.09998 0.46172 0.622365 0.0946005 4.82297 -12.627 -11.066
68 1 Ar 9.94273 4.03715 1.2798 0.0886414 -0.589414 0.56134 1.65601 13.5723 21.16
3704 1 Ar 10.5604 4.79441 0.0434318 1.31047 -0.05681 0.898107 1.6282 3.61708 -3.86299
112 1 Ar 10.3981 4.2497 2.50593 -0.291426 -0.597706 -1.27068 2.72514 4.40076 -10.2264
94 1 Ar 10.3511 5.13848 1.0937 -0.481636 -1.77095 0.26291 -19.2631 -5.17589 2.59958
76 1 Ar 10.8295 3.7604 16.7197 -1.33194 -0.945499 0.0730076 6.73556 -0.180938 8.51844
75 1 Ar 11.3718 3.55457 2.61502 0.322405 -1.11686 0.990925 -5.91096 -16.7416 -11.8193
73 1 Ar 11.7349 2.98692 1.52012 0.429591 -0.256117 0.261873 12.8081 4.41316 2.83796
67 1 Ar 12.5724 2.15344 1.80524 -0.616403 0.121536 -0.41221 -7.11225 12.8418 9.21988
3714 1 Ar 14.3161 3.7248 1.52456 0.0716696 0.967634 0.204146 32.7763 20.3975 -5.93346
509 1 Ar 12.6973 3.3588 2.0696 -0.711126 -0.355158 0.279269 -30.5178 -10.3322 17.8991
153 1 Ar 14.8323 4.19764 2.67141 0.876606 0.506144 0.432854 -19.45 2.30822 10.665
81 1 Ar 15.1159 4.66436 1.02226 -0.524859 0.767112 -1.01311 -9.6172 5.19924 14.183
962 1 Ar 15.3907 4.03293 1.85301 -0.0915918 -0.0330151 0.880933 -22.9575 -25.0278 -20.0349
120 1 Ar 16.0737 4.68188 1.51473 0.318558 -0.367112 -0.38948 12.7164 12.8046 -2.07525
480 1 Ar 16.1293 3.00431 2.18831 -1.55554 0.720099 -0.198316 12.451 7.80876 -1.23089
115 1 Ar 15.4214 2.96351 1.36998 -0.609125 -0.234855 -0.412108 12.0315 11.1092 6.20354
124 1 Ar 0.991384 4.58114 1.15016 0.720212 -1.31959 1.54872 0.0439898 -0.207397 0.021635
524 1 Ar 1.147 5.67954 1.49335 -0.112127 0.134365 0.0585272 12.2713 -11.5576 -5.21894
123 1 Ar 0.622864 5.52492 0.296725 0.29871 -0.440448 0.360388 -0.583456 1.45971 14.2301
3725 1 Ar 1.75188 5.72223 0.244241 -0.127039 -0.799084 1.35727 11.9433 -2.64634 14.0767
522 1 Ar 3.01183 4.74772 0.632544 -1.07811 -0.0491771 0.333619 -16.5786 -10.588 -7.17386
157 1 Ar 3.31021 6.57001 0.938358 -0.0231062 -0.099852 0.271041 17.1115 16.2432 -24.1771
173 1 Ar 2.58527 5.97033 1.23393 0.0478191 -0.431278 0.745992 -22.0012 -15.1902 7.5911
3772 1 Ar 3.78139 6.03301 1.73151 0.608038 -0.0308002 -0.0120038 -20.7345 -19.8492 31.2103
893 1 Ar 3.77504 4.10177 1.34484 0.578417 1.52526 -1.73895 4.4711 -0.559474 -8.25677
3732 1 Ar 3.77235 5.35354 0.881435 0.580133 0.152124 0.235962 9.32036 23.6788 2.38939
174 1 Ar 5.67455 5.57716 0.218692 0.15027 0.0352491 1.63137 2.03631 16.4439 -0.66699
3775 1 Ar 5.33681 5.13148 15.661 -0.140921 -0.389814 1.26817 12.953 -1.75027 -7.2838
130 1 Ar 5.64916 5.03309 1.22108 -1.56131 -1.13106 1.27085 5.24946 -11.9414 -20.1314
3296 1 Ar 6.78129 5.34479 0.0711156 -2.68852 -0.690698 -0.782441 -22.7641 8.98098 -3.57105
3727 1 Ar 6.35166 6.14905 15.0141 -0.821846 -0.725831 -0.85813 -6.27858 23.4426 1.45387
90 1 Ar 6.65445 4.48311 1.08282 -0.29857 -0.366556 -1.23167 3.61735 3.7923 3.80175
573 1 Ar 6.32814 5.74451 15.9509 -1.83493 1.01088 0.603001 -2.13112 -2.95792 13.2881
3735 1 Ar 7.18591 5.88956 1.21752 0.927152 1.08236 -1.18897 6.4066 -3.17898 -12.1061
3740 1 Ar 7.75902 5.30107 0.309137 -0.34729 -0.986597 0.552386 18.688 -1.92923 13.2298
219 1 Ar 9.13554 6.01113 0.383134 0.195856 0.336449 0.544088 -13.621 1.18331 -7.89255
538 1 Ar 8.9156 4.05538 0.850628 -0.641343 -0.725547 0.461896 8.25469 18.5517 -14.9876
140 1 Ar 9.39807 4.94364 15.8716 0.435765 -0.443901 -0.326634 -7.72791 -0.801303 7.89609
539 1 Ar 11.1573 6.11213 1.92084 -0.547196 -0.173435 -0.637933 17.7647 31.0078 -0.136855
506 1 Ar 11.1183 4.37021 0.930587 -0.635763 -0.939261 -0.711301 -7.16776 -0.0757741 -0.677012
148 1 Ar 11.345 5.42474 1.12259 -0.472685 0.040422 -0.193545 20.6211 3.62359 -3.13996
189 1 Ar 11.7826 4.26662 1.78492 0.664247 1.02388 -0.760174 -14.3246 -23.7311 8.79629
190 1 Ar 13.3853 5.49801 0.20855 0.295119 -0.621844 0.775011 -13.5819 0.584559 0.727908
156 1 Ar 12.3901 5.03268 1.63133 0.863711 0.449521 -0.341452 15.8359 9.66398 -23.0507
989 1 Ar 12.3705 5.7899 0.621655 -0.213264 0.32709 -0.749468 -0.680731 -9.56844 24.9508
596 1 Ar 13.1461 4.20735 1.73614 -0.0906462 -0.413443 -0.227674 10.2955 14.2878 -14.9042
196 1 Ar 13.3377 5.92271 1.18062 0.427703 0.780558 -0.178958 -1.88845 -2.03915 6.46396
151 1 Ar 13.7955 4.69139 0.821075 0.031865 0.156643 -0.519008 0.326919 8.23996 -2.89148
559 1 Ar 14.3501 5.65488 0.694332 -0.295147 -0.053857 0.424376 13.4289 -4.27744 31.5823
200 1 Ar 0.104089 5.26237 1.2474 -0.655145 0.281944 -0.503344 3.18817 10.5081 -6.16299
561 1 Ar 15.7611 5.41681 0.809753 -1.43417 -1.56534 -0.599884 -1.03494 -2.04172 2.21838
518 1 Ar 16.0597 5.75348 2.03705 0.946578 0.584841 -0.0900157 16.2998 16.8149 -12.0366
564 1 Ar 0.42929 6.39815 1.45782 -0.222336 -1.155 0.716107 -17.6791 16.5951 -9.32114
3803 1 Ar 16.5362 8.95049 16.6693 0.844513 -0.570977 0.588571 16.6937 -43.183 11.2313
609 1 Ar 3.13238 6.8466 1.90482 0.796245 -1.87916 0.650606 15.7124 -8.89215 14.4209
126 1 Ar 1.46822 7.04043 -0.00114138 -0.880006 0.445222 0.0626164 -5.7106 18.0522 23.3933
1010 1 Ar 2.4188 6.97132 0.381655 1.26102 -0.641457 -0.109513 7.85638 1.25864 35.8611
210 1 Ar 2.84247 6.1562 2.72828 -0.558782 0.411853 -0.966788 -2.51331 -5.64999 -26.298
211 1 Ar 4.37797 6.37603 1.0414 -0.275355 -0.572221 1.19578 -2.53348 12.8927 -19.7659
566 1 Ar 4.44501 5.91094 0.0109869 -0.364387 -1.04605 -1.44577 -3.94915 -0.397828 26.822
653 1 Ar 5.24709 6.5796 0.611176 -1.21209 0.394733 -1.14081 12.5431 3.73089 -0.611652
178 1 Ar 4.76426 5.48033 1.43362 -0.356251 0.165683 -0.439371 -6.9355 -1.28935 -30.5743
3817 1 Ar 5.72386 6.85091 16.5454 0.632969 0.0301385 1.41306 22.1995 -29.0576 -6.21223
3774 1 Ar 4.65375 6.8744 16.4169 -1.10783 0.221687 0.397422 40.2113 34.8719 43.0885
621 1 Ar 5.29592 7.73387 16.4244 0.472442 -0.278291 -0.810174 -6.65015 0.389614 -11.5882
3375 1 Ar 6.30695 6.3024 0.603218 -0.260048 0.065544 -2.05071 16.7649 7.61888 -11.4704
3780 1 Ar 7.26404 8.02162 15.8964 -0.398594 1.68756 0.139482 -15.691 15.6046 -17.1858
613 1 Ar 8.08432 6.78315 1.55154 1.66606 1.32583 1.07455 -0.640065 11.6703 -26.5487
3859 1 Ar 8.05484 7.49255 0.637986 0.155606 -0.916584 0.612841 26.1589 4.84639 6.7125
215 1 Ar 7.91329 6.53312 0.228777 0.463225 1.88811 0.379413 9.91919 -9.74996 -1.24579
544 1 Ar 9.76688 6.29441 1.17959 -0.00262423 0.116177 -0.574819 5.15963 -2.44195 2.2538
3836 1 Ar 10.6316 6.89037 0.743412 -0.500357 -0.717419 0.632775 5.96063 3.4121 11.8663
183 1 Ar 9.13389 7.19849 0.984635 1.10439 0.408822 -0.551367 -13.4736 -12.4937 7.68254
623 1 Ar 9.97931 7.79449 1.34135 0.296085 0.972695 0.735724 8.10656 0.706574 8.02947
192 1 Ar 12.423 6.07155 1.7683 -1.3199 -0.732207 0.460279 -14.7037 -10.3136 -5.08037
187 1 Ar 10.7756 6.51558 16.2992 0.363838 -0.156381 -0.0913348 -2.9773 -0.271223 -15.8069
588 1 Ar 11.3014 8.02659 1.56117 -1.44632 0.914625 -0.625761 -3.09388 -8.14422 3.06119
950 1 Ar 11.5241 6.44977 0.199971 0.22109 -0.376013 -0.0188264 21.7451 1.77529 6.65404
193 1 Ar 14.7321 6.93597 0.0587643 0.284271 -0.659339 -0.468761 -12.618 10.073 -1.9014
993 1 Ar 12.6804 6.75585 0.51108 1.16221 0.796444 -0.275318 4.26379 16.4943 -1.29078
960 1 Ar 15.1318 6.49669 1.14656 0.978237 0.0661326 0.655979 -19.7402 -7.74609 -11.1844
3798 1 Ar 15.2244 7.77582 1.02812 0.767216 0.134087 -0.934141 -22.2746 -1.45663 -14.002
557 1 Ar 13.7735 6.52562 0.355665 0.373126 -0.156862 0.597708 -3.23325 -0.0645631 8.21283
590 1 Ar 15.8341 6.84604 16.2199 0.144934 1.11991 1.00564 -14.0789 5.98037 -9.67581
158 1 Ar 16.6589 7.25362 0.926976 0.22476 -0.262084 -0.451278 18.2279 10.8107 -10.3265
605 1 Ar 16.3754 6.17737 0.581762 1.63051 2.46836 -0.0719211 18.3704 16.0741 -2.77894
602 1 Ar 1.97516 7.80697 16.1538 -1.15565 -0.578317 -1.11624 1.40074 -10.7164 22.5437
922 1 Ar 0.389877 8.21218 0.286438 1.72695 -0.23841 0.155722 1.86947 -14.6303 -39.5034
201 1 Ar 1.06446 7.82375 0.912648 1.32415 0.316747 0.823792 3.51597 -26.7484 13.9958
167 1 Ar 2.00599 7.97986 0.468393 1.29627 0.5005 -0.584175 10.8132 -1.35868 1.71563
612 1 Ar 3.01 7.50206 16.5047 -0.555371 -1.72484 -2.04376 6.05991 -4.85118 -0.201007
243 1 Ar 3.94606 7.12591 0.304762 1.25269 -0.440957 0.19649 -9.29869 9.81634 -0.234973
652 1 Ar 3.70191 8.30619 0.299463 0.573577 -1.36196 1.6168 9.99557 -40.6092 -0.921123
3016 1 Ar 4.76352 7.92408 0.563681 0.270164 -0.344269 -1.67095 -3.35058 0.153278 -0.634167
297 1 Ar 5.70768 8.57476 0.0129474 1.25475 -0.67557 -0.302716 -7.06918 15.6543 12.7259
569 1 Ar 5.20192 7.49651 1.52486 -0.0124704 -0.311301 -0.150535 18.8573 -33.094 -14.2871
220 1 Ar 5.85299 7.97906 0.908314 1.1528 -0.499913 -0.396797 4.4066 16.9799 -9.99618
1414 1 Ar 4.76052 9.30014 0.834089 0.285049 -0.634359 0.746731 -27.1382 -7.57083 16.0707
3779 1 Ar 6.38849 7.54051 0.15117 0.43561 -1.31738 -0.772541 15.7587 5.52005 20.0302
218 1 Ar 6.55868 8.74044 16.2679 0.0499045 -0.794842 0.747818 1.42805 -12.852 4.96605
141 1 Ar 8.50831 8.07647 1.50469 -0.60645 0.251133 -1.01671 6.14563 -0.287811 -8.45821
224 1 Ar 8.64598 8.41818 0.263117 0.128177 -0.439414 -0.798016 -14.5355 -18.1862 10.49
184 1 Ar 9.79049 8.63184 2.07339 -0.111589 -0.524178 -0.591418 31.0591 -4.15549 -7.31009
586 1 Ar 10.8251 8.97354 1.28827 -1.3084 -0.363552 -0.433349 7.67474 25.6335 22.2441
3787 1 Ar 10.8499 10.2847 1.04832 -0.46074 -0.903497 0.502147 8.1442 1.33145 -8.42816
3739 1 Ar 9.91905 8.83589 0.798943 -0.876898 -0.543143 -0.857327 -11.3426 -1.15517 -6.61175
229 1 Ar 11.6137 8.15039 16.6266 -0.753532 -0.149442 1.03461 -23.3931 5.52896 -5.77076
625 1 Ar 11.8726 8.72786 3.02686 0.323445 -0.856806 -0.919623 15.4965 7.59781 -7.86854
186 1 Ar 10.8659 8.23833 0.614469 1.35262 0.576797 0.460037 -12.4808 -12.1478 -22.8335
152 1 Ar 12.0101 8.42077 0.843788 0.480976 -0.389636 0.0717941 -17.1652 -2.60724 -0.343431
197 1 Ar 13.5013 8.45233 0.281787 0.779738 0.722374 -1.13394 7.56225 11.4294 6.57963
636 1 Ar 12.565 9.41555 1.44615 -0.465021 -0.422621 0.187939 -6.00945 -24.3081 -19.0912
231 1 Ar 12.5009 7.78589 0.0963925 1.26144 0.0472721 -0.302933 22.4217 -3.6323 11.7858
237 1 Ar 13.5379 7.48496 -0.00613026 0.294576 -0.427062 -0.535604 11.1016 6.14761 5.97184
3439 1 Ar 14.6416 8.63339 0.633095 0.441483 0.00867319 0.623122 -2.28381 3.56278 -2.54325
3395 1 Ar 15.1797 7.97827 16.6058 1.99883 -1.71415 -0.664635 10.502 -6.55793 2.44596
3790 1 Ar 15.6948 7.04553 0.461293 -0.104935 1.3338 -0.260704 20.8662 11.1447 -1.80782
3808 1 Ar 0.269912 8.86812 1.01521 -0.214621 -1.68809 -0.028499 -9.34064 20.8494 22.3233
164 1 Ar 0.649269 8.33483 1.99564 -1.76316 -0.197942 1.28416 -6.81852 5.80263 -6.30679
717 1 Ar 2.41388 9.02221 0.562311 0.748517 -0.282595 0.23405 3.5717 -27.4785 47.4136
608 1 Ar 1.35654 8.79747 1.01264 0.626098 -0.299875 -0.633016 10.6292 14.787 1.05264
207 1 Ar 2.54916 8.53941 1.50505 0.644202 0.18388 0.997157 10.0259 1.5388 -6.40287
206 1 Ar 2.06768 9.48979 1.66951 -1.19634 -0.185902 -0.70135 9.24818 9.19976 -35.2053
204 1 Ar 4.077 8.49968 1.32045 -0.276778 0.00724131 0.0846437 -7.44722 -3.99411 8.86496
649 1 Ar 3.48658 9.98665 0.0703937 0.824275 0.0393953 0.449675 -0.0512234 23.554 3.65844
689 1 Ar 3.54649 11.0126 0.606877 -0.284965 1.56252 0.558412 -7.19227 8.20285 -0.858532
1082 1 Ar 3.15734 9.47799 1.95359 1.01064 0.54766 -0.0239863 -13.9576 -6.46555 3.00439
1049 1 Ar 3.81653 8.70472 2.45763 -1.33602 -0.552352 0.63754 15.3773 28.2515 9.85035
638 1 Ar 3.99654 9.89317 1.52586 -0.18803 0.0082672 -1.06222 6.5512 7.7312 -12.9116
217 1 Ar 4.44631 10.5369 0.498545 -0.465549 -0.305094 1.36826 -22.3653 -17.8797 23.5837
1020 1 Ar 5.84966 9.38405 2.20742 0.771268 -0.354879 0.403621 6.70472 -39.8698 -15.8438
175 1 Ar 5.79005 9.17629 0.925597 -0.57747 0.2218 -0.489336 25.5711 -11.1442 16.6991
1051 1 Ar 5.14385 10.1517 1.31592 -0.762342 0.779213 -2.48405 -9.84277 8.30662 5.19987
258 1 Ar 5.97924 9.64904 16.2283 -1.4926 0.00798014 1.13711 12.9568 -0.809895 -3.36117
3904 1 Ar 6.61773 10.0243 0.516631 -1.67706 1.04408 0.489343 -4.07271 -8.67699 -16.522
628 1 Ar 7.47999 8.18953 0.16866 0.485815 1.24583 -1.63453 4.19301 -7.49278 -12.8355
665 1 Ar 7.84072 9.64908 0.336804 -0.648988 -1.76343 0.227902 13.2628 4.25323 11.2391
3784 1 Ar 8.89763 9.39535 0.887667 1.04866 0.909363 -0.498845 2.52813 -14.4699 16.5534
222 1 Ar 9.27289 9.08443 16.6563 0.118108 -1.3552 -0.607137 12.5337 18.8386 -11.0005
672 1 Ar 10.8866 11.019 1.82142 -1.50509 -0.393066 -0.0658122 10.5131 6.84955 1.03478
303 1 Ar 11.2939 9.98168 1.9644 0.899304 2.6138 1.1825 0.366799 -20.0347 -3.07994
3796 1 Ar 12.3561 9.77287 2.38719 -0.0410457 0.163085 1.19012 -2.41754 7.58607 14.4316
669 1 Ar 11.7846 9.7826 0.574982 0.840473 -1.02963 -0.730829 5.66233 2.1832 1.20335
195 1 Ar 12.6546 8.99417 0.32194 -0.220723 -0.100988 0.000898547 -6.25476 24.7859 -11.86
271 1 Ar 12.7644 10.3671 0.509098 -0.163815 -0.543681 1.27183 -4.81474 -2.47272 0.578964
1072 1 Ar 13.8551 11.5703 1.87265 0.603105 1.32798 -0.512177 47.6849 -16.8724 -8.49415
194 1 Ar 14.3678 9.69917 0.117007 -0.373274 -0.222107 0.704073 47.617 -16.6337 -17.4502
353 1 Ar 13.4678 8.78944 1.33129 -1.50816 -0.104133 0.224787 0.277075 -5.00451 6.18909
720 1 Ar 14.6543 9.30329 1.60006 2.13719 1.32117 -0.306951 1.50802 1.80738 -2.8441
279 1 Ar 1.57982 9.88931 0.707647 -0.0520011 -0.558398 -1.0695 2.2834 -12.1395 -0.0930988
199 1 Ar 16.1622 9.86494 1.31615 -0.236614 0.916151 0.697519 5.09397 12.3373 7.00703
3795 1 Ar 15.3377 10.0843 16.2862 0.262717 0.219251 0.462049 3.43369 -15.5287 -14.058
277 1 Ar 0.585797 9.60315 16.7716 -0.635331 -0.960604 0.668895 -28.1747 6.59321 33.0784
212 1 Ar 1.54556 10.9007 0.441654 -0.859426 0.709996 0.360944 1.47272 5.2021 -0.07127
241 1 Ar 0.773367 11.7245 0.518675 -1.69755 0.316226 -0.609109 -9.90956 -5.68996 3.31133
3887 1 Ar 16.7576 11.6347 16.3545 -0.774347 0.681652 1.92848 11.7941 -13.3043 -5.23716
3888 1 Ar 1.38603 9.93457 16.3106 -0.477484 -0.026814 -1.1772 22.2327 13.2969 -15.8635
685 1 Ar 1.51301 11.6001 1.25483 -0.276607 0.448418 0.240878 -6.57837 12.2249 11.4339
247 1 Ar 2.71802 9.98464 0.91305 0.424454 0.0973342 -0.233135 7.12398 -43.8266 30.6993
287 1 Ar 3.01496 10.5939 1.71259 0.353675 -1.78091 -0.0633047 5.91569 -21.5421 -16.7589
3879 1 Ar 0.945263 12.318 16.486 -0.364431 -0.494438 0.249413 -7.16688 10.5037 -6.47572
648 1 Ar 2.61343 10.7109 0.306872 0.593773 0.27259 0.084895 -17.2352 18.5184 -61.9057
1056 1 Ar 3.41625 11.8359 1.34627 0.306209 -0.0809955 1.60417 3.10847 -25.3147 -1.12312
3895 1 Ar 6.39604 11.9745 0.0885195 0.331689 -1.49368 -0.479212 -0.714157 -11.0023 -3.30168
294 1 Ar 6.33219 10.6795 16.4145 0.801168 0.690959 -0.260729 -1.1154 -1.32255 4.39468
257 1 Ar 7.19504 11.3125 16.3329 -1.4233 1.41155 0.120597 -0.293577 5.77783 1.6466
650 1 Ar 5.8762 12.7579 0.597176 -0.666434 -0.739115 0.180427 4.00871 -5.72586 31.8492
1059 1 Ar 6.16769 10.0991 1.45714 0.577711 0.309594 1.60063 -3.42722 -8.51298 0.871757
259 1 Ar 6.93706 11.0996 0.575552 -0.543025 -0.458524 -0.685094 -3.94417 -2.68202 -17.5211
668 1 Ar 9.6522 10.8405 0.26012 0.176951 -0.560149 -0.154177 17.9793 8.13791 8.51529
293 1 Ar 7.23809 9.95627 16.4004 -0.141231 -0.974144 1.0445 -22.6241 3.48865 -0.748441
3867 1 Ar 8.93554 10.1351 0.213225 -0.396408 -0.148848 -0.966826 -0.643883 4.96853 -3.35965
232 1 Ar 8.78265 11.3882 0.275408 -2.75316 -0.824884 -0.564265 -4.21996 -4.74969 14.1812
626 1 Ar 10.5429 11.8046 1.21762 0.735459 -1.1212 0.56636 19.1091 14.9846 -0.832037
3512 1 Ar 11.3937 12.441 0.922833 0.972061 -1.15919 -0.70427 -8.41943 -1.2598 23.813
3832 1 Ar 10.2003 11.8543 0.158217 -1.97324 0.77454 0.198167 -1.78544 -0.842483 -1.20414
996 1 Ar 13.5557 9.58104 0.644977 -0.161763 1.47745 0.453794 -27.3376 -16.9803 38.2095
309 1 Ar 12.1202 10.3651 1.4117 1.2313 -0.120496 -0.431176 3.24502 12.0007 4.57166
3866 1 Ar 11.2034 11.4782 0.483425 -0.599742 2.10271 -0.554576 5.32077 -9.51762 -15.0434
270 1 Ar 13.1252 11.234 1.06422 0.652672 -0.251842 -0.0922409 -1.18555 1.09686 1.78958
351 1 Ar 12.2799 11.9472 0.564483 -0.0824487 -0.344647 0.652277 16.5386 2.46514 11.4083
671 1 Ar 14.9024 10.6679 0.164852 -0.527164 0.537806 -0.201886 -16.5632 29.5839 11.7592
3876 1 Ar 15.0734 12.1273 0.0183625 -0.818365 -0.258308 -1.51996 3.24265 0.936936 6.74206
1033 1 Ar 15.4147 10.6008 1.79271 -0.0419938 0.158237 -0.35757 2.45125 -2.44569 -0.0221163
360 1 Ar 14.099 11.6195 0.639237 -1.45657 -0.133329 0.269863 -9.61939 -7.3139 -1.08256
3875 1 Ar 14.3449 11.6348 16.2893 -0.498727 -0.953878 -1.21907 -24.4848 -15.1702 7.01176
315 1 Ar 15.2786 9.901 0.74981 1.34437 0.087467 0.125132 -3.55499 -5.58225 1.33242
275 1 Ar 15.9071 11.0872 0.105203 -0.0159679 0.237763 -0.526829 -7.9087 -3.00033 -1.43457
321 1 Ar 15.9929 11.8934 1.37664 -0.49624 -0.742258 -0.381361 6.65297 12.1459 -14.2253
288 1 Ar 0.118279 12.6387 0.806211 -0.23687 1.17223 -0.141199 -2.25524 -1.38001 2.09797
726 1 Ar 16.1002 12.1151 0.153946 0.506076 1.48117 0.162716 8.15762 6.98505 11.1088
245 1 Ar 1.82404 12.1439 0.178357 0.568313 1.17141 -0.322828 -10.9313 -15.5929 -0.93551
766 1 Ar 2.30863 12.6637 16.1108 0.768516 0.750381 0.718361 3.47306 3.13796 7.7278
3892 1 Ar 2.36137 12.1624 1.80985 0.953109 0.522764 -0.324811 -8.05043 -36.9182 -22.3398
3925 1 Ar 3.16181 13.5206 0.873184 -0.307541 1.73291 0.0644027 -4.92385 5.03864 -5.21603
1090 1 Ar 2.49658 11.3212 1.07913 0.821956 -1.04384 0.927464 2.80523 13.1069 16.8712
686 1 Ar 2.68888 12.5183 0.475512 0.937579 0.242152 0.639156 21.0385 9.27211 9.16259
1089 1 Ar 4.42879 11.6485 0.77627 0.137116 -1.01229 -1.10889 4.62508 22.0181 -19.9371
1456 1 Ar 5.23705 13.6966 0.296529 0.12428 1.06517 -0.6879 1.89073 6.39492 -3.77148
729 1 Ar 4.63798 12.5724 16.6388 0.821435 -0.090069 0.351424 -21.7468 -2.02723 -42.2915
332 1 Ar 6.05609 13.6595 1.12138 -0.146883 1.63456 -0.246234 -16.1606 3.57423 -4.4274
1094 1 Ar 6.75956 13.4323 0.21932 -0.695328 -1.15133 0.429631 -1.62473 -4.77437 -1.90617
3900 1 Ar 6.95581 12.6583 0.991465 0.065084 0.597881 -0.751255 -7.88174 -6.2654 -3.18983
3937 1 Ar 8.83828 12.5436 16.0304 2.18164 1.87751 -0.0186947 -9.02815 13.1572 -8.04223
295 1 Ar 8.64451 12.53 0.326888 -2.06311 -0.432863 -0.869833 -15.3673 -42.4818 1.84109
302 1 Ar 7.88819 11.7099 0.597665 1.45923 0.0167671 -0.758953 -21.3686 7.83552 5.04707
662 1 Ar 9.66447 12.3979 0.974203 -0.852343 -1.60831 -0.0022662 -17.3529 2.28735 -29.5085
707 1 Ar 10.4589 12.9895 1.21524 2.67094 0.699473 0.615531 22.0442 7.15467 8.72771
749 1 Ar 11.6582 13.6699 1.47469 1.45258 0.849381 -0.256485 13.6822 -8.11239 18.2479
747 1 Ar 9.47154 13.408 1.26352 0.490085 -0.65407 0.236569 -13.1516 1.61233 0.871109
346 1 Ar 11.0796 13.701 0.642508 -0.0984763 -0.200707 -0.331348 -9.36784 -2.80356 -17.4328
385 1 Ar 11.7923 12.9346 0.143258 -0.527675 0.734234 0.447834 24.6199 18.5868 -2.21931
3392 1 Ar 11.074 12.8774 16.2625 2.99721 1.58367 -0.666606 -21.7402 -0.972296 -22.1028
306 1 Ar 12.0196 12.6953 1.88381 -0.105826 -0.175088 1.20558 16.6503 -6.45783 -2.03173
354 1 Ar 13.1643 12.5944 0.078341 0.419473 -0.231173 -0.200546 -1.47073 -11.9481 18.7825
387 1 Ar 12.4858 12.996 0.918353 -0.994863 -1.06276 0.439157 8.61097 4.12651 6.70028
391 1 Ar 13.001 11.9786 1.99623 -0.884241 -2.09066 0.444044 -48.6164 25.9985 4.3266
3959 1 Ar 14.1853 12.6154 0.308854 -0.704509 -0.686173 0.40056 1.71454 14.43 -2.09656
393 1 Ar 14.0761 13.5516 2.87898 -1.19581 0.157586 -1.06792 3.41401 -20.7416 -5.90486
684 1 Ar 15.2882 13.5901 1.58663 -0.217575 -0.214564 0.118595 10.7392 -2.91777 -2.14463
318 1 Ar 15.6657 12.7654 0.842527 -0.824674 0.369423 0.729332 2.7256 5.48142 7.65268
317 1 Ar 15.9267 13.7843 0.509185 -0.50472 0.599753 0.531255 7.1644 4.07731 10.2695
3884 1 Ar 15.0913 11.5057 0.938905 1.30198 -1.60085 0.0307126 8.52017 -4.97099 1.07391
368 1 Ar 0.111728 13.5301 0.155872 0.0983149 -0.255098 -1.27578 6.15431 4.0459 2.96375
282 1 Ar 1.42338 14.4155 0.221624 0.602825 0.0800741 -0.366047 1.33965 14.3712 -9.95328
362 1 Ar 2.16478 13.8163 15.9525 0.666012 -2.77382 -1.07888 -10.1779 -8.64118 19.0658
361 1 Ar 2.247 13.4876 0.129412 -1.11523 0.291319 -0.649962 -1.80081 -5.97018 15.1164
3 1 Ar 2.1797 14.135 0.980152 -0.32484 0.0408486 -1.24315 14.3437 10.9925 3.18225
371 1 Ar 2.92538 14.3901 16.7483 -1.40089 -0.505322 1.04657 -2.3191 1.78138 7.96386
762 1 Ar 4.25785 13.7334 0.862103 -0.417481 -0.0447176 -0.146248 -14.5539 11.3473 5.39961
773 1 Ar 4.07366 13.5242 15.2329 -0.547974 0.561001 -0.343333 8.45074 -2.45132 3.34183
736 1 Ar 5.19724 14.8286 0.573908 -0.867874 1.17173 0.945245 0.608168 -5.52991 10.2632
3977 1 Ar 5.43263 16.5989 1.40541 0.363567 0.134545 -1.04206 4.10777 6.60435 29.247
3580 1 Ar 5.79855 14.7362 1.4613 -1.46665 0.439687 -1.36078 9.62764 -7.62642 -6.83812
333 1 Ar 6.08085 14.0875 16.5165 -0.450232 0.0010064 -0.950585 -7.35695 -2.73619 -14.1064
733 1 Ar 6.76386 15.6821 0.544131 -0.674338 -1.82764 0.632195 -7.58419 11.5589 11.1655
694 1 Ar 6.26967 14.6282 0.584793 1.7155 0.315832 0.135453 9.1082 0.355013 -21.8564
3940 1 Ar 6.93325 14.9511 1.31309 -0.318505 -0.447868 0.712471 -0.794237 10.4964 32.3147
296 1 Ar 7.79335 13.2682 0.594451 0.365502 0.564919 -0.127606 -12.8701 -1.20599 -69.8775
305 1 Ar 8.9561 13.4446 0.319484 -1.77703 -0.385237 0.561617 4.48807 33.9226 4.57736
337 1 Ar 8.09222 15.1094 1.09492 -0.871125 0.735208 -1.22235 8.08487 -4.72406 17.7454
3944 1 Ar 8.95952 0.512241 1.44874 0.0474191 -1.29613 -1.03788 -1.97357 -0.0779376 2.78837
342 1 Ar 9.20774 15.5142 0.927944 -1.25705 2.43989 -0.436962 -13.0731 -12.9972 -7.74202
788 1 Ar 10.8555 15.5386 1.05764 -0.125051 0.478814 1.37533 0.354896 -3.27611 -1.16634
746 1 Ar 10.0847 14.6658 0.862062 -0.622368 -0.457125 0.435146 -1.52475 1.88859 1.55115
350 1 Ar 12.2606 14.12 0.767299 -0.37778 -1.07301 -0.0789451 1.99986 4.37379 -10.482
381 1 Ar 11.3238 14.7231 0.351722 0.479269 -1.76808 -1.67953 -13.6803 1.94672 12.5892
352 1 Ar 10.9929 14.4838 1.45807 -0.26569 -0.935374 0.591106 1.15221 9.04181 2.66988
3912 1 Ar 13.5946 13.5898 0.680348 0.493007 0.636145 -0.279428 -6.74838 -6.68849 -2.02498
3591 1 Ar 13.5407 12.6392 1.25722 1.06191 -2.29674 0.817324 -0.0480006 -2.36435 -1.00659
39 1 Ar 14.6948 14.4312 1.11901 0.784147 -0.0612478 0.477308 9.72355 -16.3062 4.19278
681 1 Ar 14.185 15.0827 0.527145 0.36441 -0.0351433 -0.255503 -12.0365 13.3614 -9.95234
357 1 Ar 15.3662 14.7185 0.301795 0.284154 -0.169847 0.0967595 -11.497 9.5666 43.0092
798 1 Ar 0.739675 0.691786 1.41683 -0.521084 -0.9025 -0.253076 -11.809 -28.0331 7.03394
3640 1 Ar 0.58298 16.1996 16.695 0.0861024 0.770687 -0.588971 -34.638 -2.94226 3.02838
765 1 Ar 16.6553 16.2179 1.17163 0.0904857 -0.20965 -0.120747 -2.62958 4.86516 -12.0364
49 1 Ar 1.87573 15.5341 0.881418 -0.509436 -0.727177 0.941648 -9.98763 -3.34499 11.6804