ITEM: TIMESTEP
8100
ITEM: NUMBER OF ATOMS
4000
ITEM: BOX BOUNDS pp pp pp
0.0000000000000000e+00 1.6795961913825074e+01
0.0000000000000000e+00 1.6795961913825074e+01
0.0000000000000000e+00 1.6795961913825074e+01
ITEM: ATOMS id type element x y z vx vy vz fx fy fz
446 1 Ar 1.33918 1.30379 1.01569 0.348427 0.296037 0.158392 -7.45032 16.0687 -2.96825
3966 1 Ar 0.250765 0.696022 0.397101 -0.733916 1.32034 1.18875 -6.78129 -7.44018 8.69069
798 1 Ar 0.600881 0.61067 1.48575 1.22124 -0.0691174 0.236866 -17.7433 -22.9027 -20.0175
91 1 Ar 3.0179 0.06113 0.838209 0.280106 0.0560824 -1.27784 7.6055 25.6313 -11.6396
12 1 Ar 1.72259 0.36709 1.19307 1.27291 0.413547 -0.94033 0.864045 -9.99252 3.4834
46 1 Ar 2.41036 1.01209 0.600509 -0.302608 1.22662 -0.973481 -1.57637 3.75022 -0.344675
412 1 Ar 1.2504 0.588644 0.237347 1.35603 -0.329403 -0.342437 16.704 -4.289 -12.0887
489 1 Ar 3.59754 1.32615 0.620659 -0.153692 -0.524479 -0.962229 -17.2294 -5.81863 19.452
1133 1 Ar 4.71382 0.605914 1.28072 0.372644 1.35459 0.428999 -11.2659 16.9629 -8.82048
457 1 Ar 5.54399 1.37725 1.22163 0.494058 -0.293936 0.156554 -3.19309 -2.21815 8.33941
500 1 Ar 4.66867 1.39083 0.47429 0.899307 -0.440051 0.189411 16.6062 4.97279 13.4635
334 1 Ar 7.35605 0.989953 1.3386 0.955986 0.724258 -0.372582 -12.0549 10.1559 7.60771
780 1 Ar 7.60424 0.671346 0.280733 1.09731 0.311195 0.092055 -2.91789 -12.122 13.9437
15 1 Ar 6.50359 0.742425 0.156445 -1.14517 -0.613734 -0.332746 0.342157 23.9249 21.3421
383 1 Ar 8.32309 1.06383 0.950821 0.158473 -0.0917736 -0.861214 17.1076 3.84837 -4.31095
384 1 Ar 9.24195 0.485831 0.441934 -0.0814884 -0.281053 -0.178339 9.20715 -15.9636 4.40806
3944 1 Ar 9.13624 0.506093 1.53194 1.02972 -0.278059 0.940285 0.418189 2.02044 1.94764
3627 1 Ar 9.05534 1.33283 16.7409 -0.040184 -0.180153 -1.90302 -5.00495 20.4389 -13.1395
505 1 Ar 10.2515 0.603535 0.836946 1.58778 1.42087 0.546001 -14.8112 -2.10635 -11.7409
379 1 Ar 9.50143 1.5181 0.964001 -0.302426 0.4326 -0.717302 7.85491 -14.175 1.53963
474 1 Ar 11.2409 0.461285 1.10933 0.526561 0.87352 0.676337 -26.3606 54.3179 11.1298
21 1 Ar 11.3035 1.31951 0.551409 0.0912032 -0.0183072 -0.438384 -13.4441 13.2163 1.17012
71 1 Ar 13.2392 1.49219 0.118948 -0.959873 -1.28102 -0.324615 0.091505 -5.76559 5.78929
109 1 Ar 13.5438 0.646509 1.36349 0.0889215 -0.0428078 -1.28699 -0.217355 13.5153 4.07254
388 1 Ar 12.3003 0.365691 1.08109 0.87584 0.555598 0.339175 9.20859 6.84707 1.75084
3991 1 Ar 12.1304 0.89966 0.13221 -1.08655 0.500215 -1.37054 18.5771 -0.956673 5.49003
429 1 Ar 13.1338 0.335132 0.409797 -0.0371404 0.684256 -0.476827 3.33926 4.54688 -2.2363
79 1 Ar 14.8315 1.07109 1.16039 0.81209 -1.4316 1.08873 22.4906 -21.1459 3.4428
33 1 Ar 14.0856 0.859711 0.14449 -0.649078 0.51401 -0.257926 5.23172 -9.07272 -5.9068
795 1 Ar 14.3331 0.0651213 0.928461 0.562246 0.529465 -0.478084 1.74 22.3804 -33.4894
438 1 Ar 16.1749 0.959228 1.09324 1.03547 0.244322 0.485352 0.398646 -2.30036 -1.11067
764 1 Ar 15.4417 0.191891 0.938004 -0.431278 0.335428 0.214554 -1.86542 1.75133 2.2542
439 1 Ar 0.241363 1.594 1.04114 0.0777281 -0.266893 0.770067 11.5168 2.64485 0.719108
441 1 Ar 0.0682002 2.63569 1.36065 -0.11084 -0.728217 0.774897 -3.83772 -9.14788 15.2781
84 1 Ar 0.936514 2.44274 0.692172 0.24567 1.44378 0.0851118 12.0021 -44.5406 -2.55098
442 1 Ar 1.67897 1.86605 0.173562 -0.331422 0.719432 1.66732 -2.01995 13.4523 24.9292
487 1 Ar 1.87015 2.22956 1.31297 -0.102446 -0.361568 -0.125419 -10.425 4.95374 -2.44406
1170 1 Ar 4.01445 1.28241 16.4932 0.662797 -0.950604 -0.559738 37.661 7.23136 15.7402
811 1 Ar 3.94818 1.72544 1.72543 -1.58571 -0.189261 1.76578 16.2341 -0.32267 1.57509
413 1 Ar 4.07708 2.27164 0.564973 0.00410944 0.197403 0.988468 7.92776 2.76244 16.1284
1134 1 Ar 2.65099 2.48826 0.647409 0.556091 -0.910421 -1.57334 -0.967155 -8.53271 -18.9933
375 1 Ar 4.98295 2.52476 1.19346 -0.460463 0.769063 -0.538959 15.4807 -20.0259 15.2169
95 1 Ar 6.55647 1.66182 0.96174 -0.956871 -1.19387 1.3493 7.67321 -24.5928 -9.99062
64 1 Ar 7.65478 2.00374 0.970895 1.0813 -0.775348 1.22788 -0.246024 -5.89105 -1.69219
133 1 Ar 6.40461 2.60349 1.2463 1.33966 0.720356 0.993803 3.79203 30.5493 -10.9128
898 1 Ar 7.46204 3.03188 1.09208 -0.691848 0.259673 0.3715 2.53463 -2.73898 -11.5336
58 1 Ar 8.69772 2.05998 1.33101 -0.0285638 -0.447026 1.77691 -9.84913 14.7977 -13.4401
432 1 Ar 10.2694 2.33263 1.09291 0.981499 -0.560441 -0.0798001 -3.51577 -0.285428 2.60893
97 1 Ar 9.33747 2.47827 0.476337 -1.17817 -0.0414488 0.838018 -6.27322 -5.11561 -7.39759
25 1 Ar 10.9448 2.28359 0.260811 0.454327 -0.37113 -0.876495 5.32392 7.21866 6.87079
912 1 Ar 11.5966 2.2069 1.1677 -1.46988 0.455294 -0.00858899 -10.3124 8.06564 -3.82914
73 1 Ar 11.6293 3.20958 1.88453 -0.04172 0.518335 0.515501 -3.20822 -9.36941 -5.31236
469 1 Ar 12.7655 1.46313 1.09103 -0.0205602 -0.959962 0.475363 -5.42986 -21.3861 3.70168
513 1 Ar 13.3099 2.33938 1.05321 -0.69876 -0.423323 -0.40161 3.25565 -3.33167 -0.424769
31 1 Ar 12.4398 2.2481 0.456591 0.141132 -1.04838 0.230284 -8.98632 -6.47951 0.823653
36 1 Ar 15.0893 2.16487 0.589304 -0.179802 0.377565 -0.488797 5.81893 -3.42946 7.5585
3674 1 Ar 15.2202 3.21076 0.198624 -1.11404 -1.35441 -0.0824142 3.63806 -19.8542 -5.61612
3716 1 Ar 14.2399 2.76599 0.757606 -1.0413 0.213986 -0.280595 -2.75307 2.32053 9.92532
35 1 Ar 14.0594 1.6167 0.851895 0.716741 1.88437 -1.21904 -24.4033 16.1191 -12.9481
434 1 Ar 16.2621 1.93787 0.399408 -0.783823 0.484 0.113174 1.72379 11.8554 -2.83522
42 1 Ar 16.2964 3.10977 0.612488 -0.837112 1.82657 0.108705 -42.2935 -10.935 -8.68117
115 1 Ar 15.104 2.90833 1.43115 0.262969 -0.47956 -0.306048 -4.23414 -2.23061 -12.5831
523 1 Ar 0.457382 3.28965 0.656597 -0.393052 -1.35749 -1.73453 22.1373 47.3695 -14.6012
124 1 Ar 0.6962 4.19531 1.21889 -1.82436 -0.272173 0.685491 1.79325 2.16834 -3.09134
3724 1 Ar 16.6993 4.21076 0.514245 -1.25771 -0.738075 0.333236 9.74149 10.0569 8.09474
48 1 Ar 1.78471 3.23323 0.679675 -1.6504 0.107605 0.726403 5.66278 -11.6814 5.14028
452 1 Ar 2.86472 3.32828 1.20341 -0.25718 -0.675682 -0.0460699 3.29841 17.8092 3.05099
92 1 Ar 3.3125 3.3018 0.270665 0.0476599 0.128397 0.204921 2.26156 -4.83003 -7.8123
530 1 Ar 4.43801 3.24609 0.769651 -1.11564 -1.73519 -0.84583 -11.9893 25.8257 -16.229
893 1 Ar 3.47756 4.236 1.19064 0.995962 -0.363264 0.0577356 7.38571 -4.6129 -4.14548
3692 1 Ar 6.03541 4.56398 0.149101 0.519806 -0.432425 -0.290498 0.100058 1.81808 -4.39335
3731 1 Ar 5.19583 3.79306 16.734 1.65877 0.811935 1.09547 1.31075 2.87312 24.1364
3653 1 Ar 5.60335 3.54206 0.965047 0.395062 -0.0199989 1.08405 -8.79403 -3.179 -9.42037
894 1 Ar 6.28402 3.47738 0.105841 -0.856371 -0.058794 -0.0156133 1.77415 -1.4409 -5.41849
3657 1 Ar 7.07603 4.29809 16.4161 0.552698 0.345383 1.35448 -20.4161 -4.9048 4.86719
90 1 Ar 6.74673 5.03521 0.971681 0.0507114 0.975244 0.275688 -33.4669 -62.2449 0.451868
136 1 Ar 6.65173 3.6586 1.16488 -1.5459 0.7733 -1.35504 -21.2312 -4.16216 -1.79299
20 1 Ar 7.66791 3.40022 16.5605 0.675302 1.47969 -1.48064 -6.40555 1.31749 8.0695
3695 1 Ar 8.42179 3.17034 0.584654 -0.46326 -0.611332 1.44973 -0.816868 -0.523479 5.98436
100 1 Ar 9.33689 3.0489 1.45092 0.140967 0.984193 0.0493816 4.15509 -5.6901 -2.47609
538 1 Ar 8.95171 4.31595 0.965018 0.867717 0.010332 -1.26355 -10.9806 -21.6999 -18.8837
974 1 Ar 7.50555 4.11932 0.840871 1.28388 -0.672772 0.162645 6.65894 -1.93467 -19.4632
68 1 Ar 9.8023 4.03334 1.41419 0.0319048 0.00594138 -0.350862 15.539 -22.2304 23.6415
135 1 Ar 9.93118 3.33963 0.576603 0.285513 1.5336 0.255392 -15.9932 5.62856 3.43438
102 1 Ar 9.6076 4.50649 0.0651524 -0.393986 0.995631 0.572238 -37.7152 0.651543 24.7097
106 1 Ar 10.7984 3.3094 1.17156 0.243129 -0.715189 1.07532 -18.5828 4.09179 11.0552
506 1 Ar 11.2 4.31985 0.915916 0.00595298 -0.309905 -0.24174 4.83732 -22.6772 11.6976
66 1 Ar 11.7034 3.2045 0.771932 -1.92506 -0.187588 0.253368 3.76055 4.25107 -8.24903
3671 1 Ar 12.5395 3.22745 0.150696 -0.0232803 -1.36269 -1.20872 7.85015 19.6699 -55.1843
3747 1 Ar 12.6792 3.16248 1.1023 -0.508854 0.689953 -0.0139783 6.51258 -6.31362 49.3184
146 1 Ar 13.5419 3.67561 0.569152 0.562457 -0.284185 -0.0117135 -2.30613 -1.78971 -1.94106
155 1 Ar 12.3239 4.19439 0.79032 0.756077 -0.917171 -0.974826 -5.97097 -9.92232 -6.49079
3714 1 Ar 14.2466 3.89014 1.44702 0.696314 1.6316 -0.591106 2.73444 2.16476 -5.25726
150 1 Ar 14.5806 4.0338 0.311012 -0.673604 -0.744091 -0.193445 11.6133 -2.49662 -2.14484
402 1 Ar 16.4749 3.77874 1.47614 0.148821 -0.323194 2.16724 5.37422 -4.59831 3.55408
3642 1 Ar 15.6823 3.98135 0.694456 0.428997 -0.773514 1.21089 -8.68058 3.29724 -3.59675
524 1 Ar 1.11004 5.62057 1.38367 0.121937 0.613735 0.595983 -20.8896 12.406 8.80844
123 1 Ar 0.882205 5.97544 0.177424 0.236927 0.241256 -1.20312 2.92404 -22.8058 24.5251
200 1 Ar 0.0473341 5.23677 1.04967 -0.694199 -0.273306 -0.499473 1.44073 0.28772 -0.320506
163 1 Ar 1.19329 4.89715 0.525769 -1.20047 0.54102 -0.103415 -1.16259 -0.866528 -6.39502
3725 1 Ar 1.94728 5.7185 0.790437 1.7718 -0.359909 0.663856 13.821 -28.4452 -12.5868
522 1 Ar 2.58108 4.69212 0.887604 0.241983 -0.825479 0.445564 4.74265 -0.277506 -18.2798
173 1 Ar 2.52453 6.24507 1.64374 -0.103354 -0.970099 0.746781 4.31508 -7.62307 -33.63
526 1 Ar 3.11674 5.66041 0.385012 1.35902 -0.549479 0.380835 -14.5517 13.5813 2.80458
129 1 Ar 4.43777 4.61034 1.01489 -0.311798 -2.5641 0.0520124 2.62068 -44.753 -32.4281
3732 1 Ar 3.86469 5.52291 1.17091 0.775764 -0.448114 0.720757 -23.7761 8.98818 -7.85491
174 1 Ar 5.19976 5.41481 0.418589 -1.27639 -0.657322 -0.0413166 -1.90229 2.36058 13.9071
130 1 Ar 5.65759 4.7357 1.1486 -0.0425009 0.0842267 0.731161 -1.67061 -2.47984 8.76576
178 1 Ar 4.74845 5.30703 1.58434 -0.0100715 -0.967279 0.831794 44.9265 32.6248 41.7779
3296 1 Ar 6.20888 5.77561 0.169561 -0.970137 1.11506 -0.540969 3.74475 -13.6228 -3.61592
3735 1 Ar 7.17516 5.86813 0.937111 -1.30939 0.167696 0.257887 55.9648 44.8696 -30.3476
3740 1 Ar 7.90772 5.22223 0.389711 0.958484 0.722404 -0.770607 -3.82422 -15.5909 10.6077
219 1 Ar 9.30053 6.27281 0.174599 0.273951 0.295213 0.462935 -14.9215 -0.276271 32.7291
977 1 Ar 8.04749 4.65891 1.50608 -0.395258 -1.94599 -0.934413 21.2056 -6.0444 -6.90247
180 1 Ar 8.13564 5.99584 1.31614 -0.767897 -0.395311 -2.08065 7.85999 1.84845 0.997318
3704 1 Ar 10.4928 4.72139 16.51 -0.85365 -0.241375 0.171606 30.4171 15.0764 -14.2409
94 1 Ar 10.2599 4.80371 0.96639 -0.855007 -0.667474 0.174809 -8.46107 -6.43759 -3.75388
494 1 Ar 8.93494 5.30809 1.08635 0.754816 -0.343419 -0.181149 2.59868 20.4175 2.65706
181 1 Ar 10.5349 5.66305 0.567413 0.652533 -0.444261 0.0569361 11.3494 25.0525 -14.7689
148 1 Ar 11.5723 5.35839 1.21779 0.0925734 -0.835784 1.08426 13.5389 5.91898 -8.60779
191 1 Ar 11.4149 5.05581 0.27126 -0.533042 0.656957 1.7649 5.16005 9.54514 -35.5826
190 1 Ar 13.3242 5.57326 0.208204 -0.312539 0.328852 0.224706 -19.0681 -16.5168 2.23274
989 1 Ar 12.3839 5.81649 0.659403 0.473907 -0.486679 -1.11733 -1.35287 -6.22643 -1.39388
196 1 Ar 13.3141 5.85485 1.27257 0.423981 1.14283 -1.34361 27.8027 19.1284 -5.21184
81 1 Ar 14.9402 4.72275 1.14485 -1.54583 0.255157 0.575274 -25.7141 -5.71204 0.340351
151 1 Ar 13.9368 4.74987 0.608588 1.75037 0.101553 -0.136312 -12.8338 15.0203 11.0855
559 1 Ar 14.3742 5.66719 1.11177 1.39746 0.62245 -2.00234 7.29614 -12.5106 29.8299
120 1 Ar 15.9074 4.70485 1.37604 -0.126761 -0.687576 -0.61263 28.3468 12.9698 13.029
561 1 Ar 15.4667 5.72616 1.01394 -0.0451039 -0.0933119 -0.864266 9.98743 -10.8452 16.9564
564 1 Ar 0.129681 6.24899 1.57738 -0.648641 -0.595904 0.407753 -0.804653 -18.9627 27.1716
126 1 Ar 1.45028 6.76752 -0.00765317 -0.198006 -0.123916 -0.835348 24.3117 30.1796 -0.636977
3758 1 Ar 0.5807 6.76738 0.869078 -0.983144 2.75928 1.87431 12.498 20.9231 -22.2199
1010 1 Ar 2.53329 6.54652 0.550502 0.194051 1.05554 -0.164691 6.6799 5.01465 -10.762
965 1 Ar 1.63471 6.62865 1.07737 0.323557 -1.12789 0.93967 -17.5513 17.2734 14.0244
157 1 Ar 3.53762 6.59628 0.930231 0.735207 -0.321038 -0.0365737 -6.57885 -15.6951 1.61397
211 1 Ar 4.56612 6.36559 1.36194 -1.23816 -0.150217 0.332971 -10.6788 -21.3395 -44.3013
243 1 Ar 3.97194 7.25346 0.286348 -0.672946 -0.941755 0.100433 -1.08548 3.96571 1.80968
606 1 Ar 4.19526 7.34843 1.33706 -0.416254 0.0998634 0.398429 2.33502 19.0158 0.134166
653 1 Ar 5.29828 6.59879 0.556835 0.210606 -1.3289 -0.295213 2.52159 2.57469 4.00098
569 1 Ar 5.3226 7.20549 1.4722 0.488509 -1.51745 0.0357208 4.5136 -26.2996 15.5698
3375 1 Ar 6.30355 6.30162 1.07708 0.104593 -1.38837 0.770542 -22.5141 20.3333 -7.78558
3779 1 Ar 7.14264 7.54863 0.183516 -0.475913 -2.50015 -0.0462719 -10.5195 -7.04541 -8.64938
1019 1 Ar 7.21741 6.98277 1.10619 0.316152 -0.336245 1.03029 1.96851 -3.44007 4.63571
3859 1 Ar 8.1712 7.49252 0.609928 -0.564277 0.812435 -0.978121 14.0826 -33.5788 18.1903
215 1 Ar 7.98447 6.17854 0.042821 0.303188 0.40884 1.08972 2.11752 24.0278 5.33057
183 1 Ar 9.12913 7.04782 0.928671 0.390582 -1.18765 -1.09162 4.30553 -0.0545175 -7.5659
544 1 Ar 9.86192 6.30051 1.11169 -0.0800651 1.62239 -0.355043 -3.70902 -6.06703 10.3139
3836 1 Ar 10.8364 6.73352 1.11687 -0.799094 -1.68835 1.27057 -10.3286 16.8698 -1.46075
3384 1 Ar 10.1973 6.96956 0.305706 -0.114363 -0.23613 0.159817 -5.9611 -0.632946 -1.0139
950 1 Ar 11.4453 6.26092 0.413578 1.57793 1.48992 1.37721 9.42037 -7.90376 -0.0144248
713 1 Ar 11.6953 7.38546 0.246933 2.01848 -0.538087 -0.30728 -12.3119 6.64471 21.2448
993 1 Ar 12.7385 6.81139 0.508473 -1.35225 0.0922032 1.80191 -11.2439 -5.84545 18.9545
193 1 Ar 14.6014 7.13087 0.213188 -1.44094 0.112156 0.542237 4.93168 2.93116 -2.13722
960 1 Ar 15.0296 6.72746 1.2206 -0.999138 1.64686 -0.259922 -8.5357 -3.91432 -18.6767
557 1 Ar 13.9763 6.61786 0.882763 0.0593621 0.363653 1.36449 -11.7141 6.32991 4.64689
158 1 Ar 0.252771 7.85696 1.02771 -0.954672 0.346779 -1.363 12.4988 6.10809 -1.09898
605 1 Ar 16.3834 6.32023 0.657033 -0.625614 0.308141 1.112 -4.52332 -3.72737 -1.62958
3790 1 Ar 15.7525 7.15329 0.407747 -1.18026 0.798122 0.68619 -5.38975 15.0931 9.17035
597 1 Ar 15.9697 6.66933 1.59429 -1.12626 0.61079 0.0310501 6.05987 -1.26804 8.37518
554 1 Ar 15.285 6.26056 0.175249 0.985431 1.3698 0.458164 -20.0743 -6.21295 -1.06644
922 1 Ar 1.15747 7.98223 0.279589 0.134557 -0.461462 0.865156 -12.1053 -8.91689 -13.9339
201 1 Ar 1.48525 7.71725 1.31711 0.875845 -0.0781153 1.58692 15.6174 -47.9842 8.32474
3808 1 Ar 16.627 8.95253 1.14119 -0.404257 1.41243 0.234225 0.880487 -6.89962 10.9484
608 1 Ar 1.26268 8.60846 1.07323 -0.311839 -1.67123 1.63673 -25.2975 58.9781 -21.1585
167 1 Ar 2.17511 7.71197 0.454434 -0.0972824 -0.939266 0.0145082 -0.909672 -1.17939 -6.46616
717 1 Ar 2.32456 8.7775 0.753411 -0.682959 -1.98121 -0.290345 8.37377 -14.2719 -3.51582
207 1 Ar 2.66169 8.23668 1.69313 0.134773 0.861789 1.13903 -14.379 12.7906 1.13723
652 1 Ar 3.99979 8.3181 0.262272 -0.415166 -0.602407 0.585116 25.0655 -0.387621 10.5387
204 1 Ar 3.92699 8.61131 1.5379 -0.539046 -0.484051 -0.144408 13.9924 -23.9021 -30.7286
607 1 Ar 3.32536 7.90571 0.99889 1.75039 -0.40562 0.307231 5.792 -12.6074 -6.48783
3016 1 Ar 5.09165 7.7397 0.643172 1.05084 0.10431 0.056579 -19.8631 -0.526036 -5.66994
297 1 Ar 5.32713 9.04644 16.7503 0.502046 0.380991 -1.16257 6.71049 -6.85952 -0.695011
220 1 Ar 6.21442 7.40787 0.71266 -0.156828 1.25022 0.58969 -4.96573 -10.9286 -8.0736
1014 1 Ar 5.01113 8.1835 1.55978 0.173737 0.0245174 0.203938 3.40238 21.471 -7.33156
628 1 Ar 7.8456 8.29791 0.177525 1.20059 0.838684 0.016678 -16.5573 42.9276 -28.349
581 1 Ar 7.23777 8.01758 1.53086 -0.894081 -0.17685 -0.793598 1.69722 -22.1821 -3.94615
660 1 Ar 6.64382 8.85229 0.38662 -0.113768 -1.38334 0.00498318 3.94486 2.14287 5.45536
141 1 Ar 9.06178 7.97104 1.42835 0.314045 0.748801 -1.2977 -11.7308 9.41981 1.81439
224 1 Ar 8.85372 8.40306 0.420768 1.55281 -0.338412 1.51485 2.1415 2.42885 1.69994
1018 1 Ar 7.7095 8.84131 1.08605 0.296824 -1.00732 -0.658043 5.66508 4.45356 4.11081
623 1 Ar 10.0575 7.68521 1.27402 -0.242206 0.31598 -0.700162 2.08244 -24.5214 3.5304
3739 1 Ar 9.8643 8.568 0.751959 -0.0918147 0.126125 0.209427 -16.2104 15.4452 -25.1628
3821 1 Ar 9.67224 7.84598 16.7679 0.476491 1.36881 -0.355624 11.7699 15.3291 -1.39528
586 1 Ar 10.8208 8.94286 1.00355 1.33493 -0.682031 -0.343796 -2.38351 -15.6069 18.1371
186 1 Ar 10.6811 7.97026 0.47913 -0.691742 -0.127733 -0.6173 4.38776 -3.41707 -20.7531
152 1 Ar 11.8493 8.3942 0.905467 -0.510232 0.850378 0.412334 -8.87345 3.49128 -24.4574
197 1 Ar 13.665 8.33209 0.309756 0.074211 0.616437 -0.93724 1.43824 4.62277 5.90788
231 1 Ar 12.5532 7.95623 16.6436 -0.418188 -1.25602 -0.688892 2.23244 15.8795 0.861063
195 1 Ar 12.7292 9.11729 0.655361 -0.582757 -0.261001 1.32812 -14.082 5.20231 -17.1936
353 1 Ar 13.3929 8.74599 1.32297 -0.364115 0.754998 -2.03686 11.2152 -14.496 16.9419
1354 1 Ar 12.8062 7.91639 0.898898 -0.562658 0.253476 0.236622 1.75218 30.8857 -43.1112
3798 1 Ar 15.2469 8.05923 0.864841 0.136746 1.0971 0.0710843 -7.57076 -4.4342 4.17042
3439 1 Ar 14.5674 8.99149 1.14252 -0.530347 0.341144 -1.21841 7.87126 -9.32816 -26.8635
594 1 Ar 13.9789 7.69311 1.05793 -0.899623 1.11793 1.85162 -2.05051 -9.79084 3.8053
603 1 Ar 16.1188 8.24303 0.264588 -1.34287 1.78414 -0.354086 8.03138 -6.7304 4.44763
1117 1 Ar 15.6167 9.08596 0.777757 -1.25341 -0.307966 -0.000176386 -3.37253 12.7434 55.9888
279 1 Ar 1.92709 10.1605 0.473178 1.05087 -0.524679 -1.14481 5.06086 -20.258 -14.3729
247 1 Ar 3.10011 10.1081 0.888541 -0.282702 0.582738 0.0483883 -15.2967 -42.3721 -24.7656
649 1 Ar 3.43905 10.0715 16.7165 0.225601 -0.403948 0.119028 22.2963 10.0987 -3.67895
638 1 Ar 3.93312 9.67048 1.37258 -0.982766 1.3788 -0.815235 8.66037 21.6585 17.5271
217 1 Ar 4.25877 10.5306 0.5532 0.113713 -0.375903 0.401899 0.837097 -8.12711 -2.35956
647 1 Ar 3.41912 9.06224 0.730404 -1.11667 0.449075 0.0310773 -14.0574 1.1983 -11.4457
1414 1 Ar 4.60809 9.06684 0.87094 -1.42381 1.76262 -0.772849 13.8166 -3.36757 -11.7024
175 1 Ar 5.72283 9.15906 1.38208 0.740667 -0.412095 1.01157 -10.1875 -10.8058 -22.4052
1051 1 Ar 5.02631 10.3031 1.48488 0.804712 -0.572888 0.633926 3.26973 -3.45324 4.05567
655 1 Ar 5.1761 9.99452 0.48691 -0.246199 -0.516274 0.679739 9.49269 1.74183 0.112042
3904 1 Ar 6.21536 9.83427 0.653608 0.397848 0.362869 0.675812 -9.91587 0.8097 -16.2624
1059 1 Ar 6.26976 10.036 1.65441 -1.21321 0.0693201 1.08507 0.833407 17.0018 17.7154
304 1 Ar 7.14091 9.86302 1.07613 1.45111 -1.3111 -0.898665 23.2746 -10.6673 6.06632
665 1 Ar 7.8902 9.53393 0.310377 0.483515 0.909302 2.27424 10.9091 0.309993 1.30075
3784 1 Ar 8.73984 9.22348 1.25874 -0.968616 0.642696 -1.15487 1.86674 5.05157 -10.2714
3867 1 Ar 9.01635 10.1482 0.44179 0.488477 -0.0506871 -0.0313992 -15.556 -10.885 -4.85502
260 1 Ar 8.00019 10.5494 1.14054 0.207752 0.536409 -0.531195 -21.5694 -14.346 -10.8919
253 1 Ar 9.84703 9.66302 1.28606 0.856737 -1.26628 1.66443 -24.4611 -7.51114 -60.0072
3787 1 Ar 10.6823 10.2055 0.973569 -0.818525 -0.407083 -0.0650186 -14.2659 -7.1161 -29.3204
669 1 Ar 11.781 9.73928 0.797984 0.431527 -0.270567 -0.206958 22.9828 11.8774 26.9326
309 1 Ar 12.2716 10.2992 1.60653 -0.068088 -0.67537 0.0618143 -7.90272 2.31537 -5.48943
636 1 Ar 12.1596 9.05509 1.63733 -0.0692104 0.810572 1.98768 5.28747 14.3846 6.51425
271 1 Ar 12.7407 10.3649 0.597272 1.43935 -0.439605 0.600849 -0.366281 -6.80577 -3.8077
996 1 Ar 13.6755 9.66168 0.837489 0.449964 -0.00990233 0.508965 -1.5442 4.32941 -0.0879744
194 1 Ar 14.6424 9.77722 0.374927 0.401735 -2.06566 -0.31735 -16.539 14.0913 18.5117
671 1 Ar 14.8371 10.9485 0.133879 0.600767 0.185536 1.54826 -0.852577 -3.52612 -13.7735
1073 1 Ar 14.6593 10.7531 1.11661 0.888873 0.694331 0.458791 -5.8543 -36.2831 30.1803
273 1 Ar 13.7864 10.6441 0.314866 0.352511 -0.287805 0.184048 5.29827 -2.23896 -0.67796
199 1 Ar 16.0661 9.92055 1.46606 -0.308363 -1.47677 -0.768274 16.3697 -7.75573 -6.40195
315 1 Ar 15.4688 10.2656 0.606956 0.630669 0.00179346 -0.0301118 41.4326 12.7354 28.6368
634 1 Ar 16.5137 9.8022 0.508978 2.21508 0.42407 0.527927 -0.156726 6.24839 -13.1784
241 1 Ar 0.495883 11.6995 0.608595 -0.290514 -0.491793 0.815561 -6.07649 3.25264 1.0608
685 1 Ar 1.31226 11.76 1.3844 -1.7498 0.93744 -0.339978 5.03538 -4.64003 -8.45827
208 1 Ar 0.330826 10.69 0.0523639 -1.00211 -0.557814 -0.0516288 -4.92735 -1.52012 -1.19194
212 1 Ar 1.27138 10.9781 0.485566 0.734627 -0.559166 -0.419945 -1.25202 16.0401 -18.9754
648 1 Ar 2.69241 10.7853 0.248415 0.0801839 0.666904 -1.17642 -35.4565 9.31937 1.89574
245 1 Ar 2.0795 11.7294 0.455068 -0.398156 -0.661173 -0.633289 -7.75442 -2.81411 -4.92946
1090 1 Ar 2.34257 11.1068 1.32018 0.968768 -0.270348 1.67986 -4.21574 2.04896 -5.87698
689 1 Ar 3.44489 11.1262 0.806729 0.166295 0.493046 -1.1831 17.1496 32.0258 0.185383
1056 1 Ar 3.57095 11.8681 1.71155 -1.29977 0.137154 0.572982 -44.6488 -25.5628 -5.03301
1089 1 Ar 4.68324 11.5137 0.726576 -0.63952 -0.933915 0.443012 6.59382 8.7397 -13.3027
616 1 Ar 4.31815 11.1085 1.58489 1.06965 0.941557 0.993867 -7.47986 -7.55475 16.1164
691 1 Ar 5.30445 12.0076 1.80845 -0.146348 -0.460337 1.10605 -10.0384 -5.7088 -27.9234
1417 1 Ar 5.68669 10.9827 0.75149 -1.42241 0.108849 0.739807 -8.04659 -5.52983 2.64084
250 1 Ar 5.21564 11.8641 16.5762 -2.13711 0.794142 0.900082 12.8962 -25.3291 48.0498
3895 1 Ar 6.31993 11.7285 0.340859 -0.243065 -0.101454 1.20341 3.61959 -3.20739 -29.5264
259 1 Ar 6.74571 10.8419 0.957977 0.585181 0.557193 1.79279 -3.39563 -0.703074 2.71347
1455 1 Ar 6.4124 11.9152 1.32857 -0.0387889 0.239163 0.638614 -10.0724 -2.70447 27.1456
1422 1 Ar 6.91293 11.2853 2.08767 -1.74179 -0.570026 1.41198 -2.1948 3.69508 -11.4337
232 1 Ar 8.61289 11.4453 0.752791 -1.32962 0.815265 0.275903 -0.304614 0.944277 -1.79946
302 1 Ar 7.33331 11.7126 0.849015 -0.445207 -1.06088 2.13341 6.54263 -0.494419 -0.526443
300 1 Ar 7.93667 10.7295 0.117603 -0.0798338 0.761913 1.62022 -7.80334 -2.93876 5.22946
668 1 Ar 9.79001 10.7853 0.623918 -1.79667 -1.06575 0.809141 6.85172 1.69627 5.31192
626 1 Ar 10.6508 11.8644 1.18395 1.60454 -0.637339 -0.0318498 17.8488 4.26669 -0.0860613
3832 1 Ar 10.1779 11.6559 0.196996 -0.203273 0.912829 -0.843755 9.39077 6.3274 -2.02722
1461 1 Ar 9.66965 11.6381 1.339 -0.112508 -0.408357 0.390637 -21.8574 -8.72574 -3.46316
3866 1 Ar 11.2636 12.0368 0.157167 0.740846 2.53951 1.098 -8.55657 -12.3461 5.84569
1070 1 Ar 12.038 11.5226 1.82955 1.38786 -0.224804 0.971985 16.8239 -11.1235 -8.32437
270 1 Ar 13.0558 11.041 1.36363 0.979606 1.02847 0.554846 -8.51914 6.02637 -9.3814
351 1 Ar 12.5047 11.9115 0.873612 0.265087 0.335452 0.762146 25.3048 -18.1625 -15.246
3876 1 Ar 15.3239 12.0058 0.0863108 -0.224168 -1.17483 -0.638537 -13.2013 0.636869 -4.0056
360 1 Ar 14.2897 11.5783 0.736101 -0.635134 0.703782 -0.337178 -5.47729 22.0737 -13.0456
3884 1 Ar 15.455 11.3977 0.955014 0.608001 1.71856 -0.821271 -6.68065 10.1108 -13.0999
275 1 Ar 16.0373 11.1117 0.0377773 0.283893 -0.0750411 -0.306177 -2.08079 9.48764 21.3638
321 1 Ar 16.3093 12.0023 1.18145 0.753625 -0.844444 -0.653847 -1.99596 23.1507 -0.293294
726 1 Ar 16.3688 12.1445 0.152149 0.741961 -0.394282 0.0654848 2.75046 2.24199 -9.10728
687 1 Ar 16.3949 11.0034 1.07142 0.971795 0.379414 0.917468 12.7383 -30.4614 0.369601
288 1 Ar 0.164036 12.7571 0.850517 -0.118439 0.271265 0.459867 8.53419 4.21322 -1.626
368 1 Ar 16.608 13.6542 0.385157 -1.38581 0.2132 1.05231 4.70474 -7.42797 12.0717
692 1 Ar 1.30286 12.5667 0.670088 0.697454 -0.248664 -0.443346 -0.418756 2.55827 4.87939
686 1 Ar 2.83336 12.3754 0.770517 -1.07725 0.2748 0.553459 -14.9007 8.58643 9.90365
361 1 Ar 2.15424 13.3268 0.349263 1.98683 -0.0458543 0.617622 -5.22509 -6.61939 -7.7746
725 1 Ar 1.82113 13.381 1.35756 -1.3855 -0.239526 0.406019 -0.836454 -6.80922 4.91023
3925 1 Ar 3.05533 13.6877 0.682519 -0.0562704 0.0376854 0.490715 20.7088 -4.96282 7.33592
762 1 Ar 4.2001 13.4008 0.838748 0.767872 0.286319 -0.922181 -3.79025 11.9068 0.555213
690 1 Ar 3.84098 12.3498 0.682397 0.330156 0.157993 0.746688 10.6914 -0.944554 1.54181
650 1 Ar 5.85051 12.61 0.703266 0.848549 0.0980356 0.851105 10.8607 -2.74341 22.1119
1456 1 Ar 4.99668 13.7449 0.17294 -0.241763 -1.4562 0.567623 1.29115 -15.321 6.52408
332 1 Ar 5.80084 13.7802 0.883028 -1.07077 -1.36315 -0.953172 -2.86109 -7.04027 4.46532
730 1 Ar 4.8518 12.5927 0.845619 0.224212 -0.0782735 0.804588 3.50494 -3.03069 -4.27767
1094 1 Ar 6.45931 13.2549 0.184679 -1.6481 0.656723 -0.734064 -8.45428 -11.1663 16.1808
3900 1 Ar 6.90905 12.8596 1.28459 1.47644 0.33551 -0.306033 4.04889 0.825448 -4.761
339 1 Ar 7.07028 13.9093 1.48595 -0.0396637 0.562279 -0.226677 -3.01209 -25.823 1.98154
295 1 Ar 8.05625 12.3225 0.390724 1.0048 0.0984875 0.554649 5.9986 10.6851 -5.60148
296 1 Ar 7.58149 13.3777 0.500086 0.319005 0.182085 -0.337913 -6.63963 -28.6793 7.49157
305 1 Ar 8.83396 13.2311 0.565844 -2.27068 0.94659 1.52308 -7.93052 8.45402 6.3447
1538 1 Ar 8.06256 12.8872 1.52184 0.626871 0.347181 -0.277253 -11.1199 2.42144 -2.82909
662 1 Ar 9.45512 12.3461 0.585754 1.32267 0.555916 1.34101 0.342044 7.5276 7.03533
707 1 Ar 10.8137 13.2867 0.982893 -0.668403 0.155614 -0.873156 -12.5731 -31.7871 38.0843
747 1 Ar 9.85488 13.3377 1.47451 0.0175144 -0.149628 1.02616 -6.88544 3.61517 -8.11992
3941 1 Ar 10.4456 12.7036 0.0116929 1.00791 0.216849 -1.58235 -18.0393 -5.21771 13.2662
3512 1 Ar 11.6864 12.354 1.16548 -1.86245 -0.470211 -1.08675 -34.1061 17.082 -2.92714
749 1 Ar 11.7363 13.6107 1.1984 0.642396 -0.629848 -1.21813 21.6701 -31.2419 6.84671
346 1 Ar 10.6815 13.766 0.161267 -0.666583 0.773335 0.349391 20.4703 12.1267 -37.2834
385 1 Ar 11.6012 13.038 0.259946 -1.59304 0.767576 -0.430499 4.19771 7.25722 -4.59982
354 1 Ar 13.2073 12.3498 0.118192 0.533688 0.853016 -0.0571231 -20.5409 11.0872 -24.984
387 1 Ar 12.5441 13.034 0.906213 -0.641608 0.633498 0.401701 1.52511 -13.5707 6.70453
3912 1 Ar 13.5272 13.3181 0.686483 -0.0082967 -0.717279 0.761419 9.79999 -6.31126 -4.6089
3591 1 Ar 13.5522 12.1965 1.03751 -0.933704 -0.369484 -0.724414 10.337 13.7324 4.31699
3959 1 Ar 14.2111 12.5649 0.00554869 -0.176982 0.27887 -0.620208 7.43892 5.87043 12.2968
670 1 Ar 14.6332 12.5157 1.12252 -0.950066 0.0877778 -0.253304 -24.2955 44.5374 -46.3127
356 1 Ar 14.1638 13.5122 1.53403 0.250138 -0.867067 -0.946714 -1.99005 7.28345 -0.913497
3924 1 Ar 14.6886 13.476 0.458962 -0.834524 0.515503 0.424612 -1.88832 -1.05755 0.566957
318 1 Ar 15.6463 12.8815 0.791691 1.64069 0.225547 -1.25142 19.3355 -27.165 -24.7551
282 1 Ar 1.6872 14.3728 0.0413805 0.181528 -0.778911 -1.25144 -24.2993 10.5334 19.4942
758 1 Ar 0.246225 14.4231 1.3105 -0.177131 0.290129 -0.761531 7.99761 -6.15238 10.9468
1171 1 Ar 0.87856 13.7108 0.752199 -0.0977244 1.22307 -1.90349 3.06424 4.14776 -21.1115
365 1 Ar 1.3421 14.6415 1.05906 -0.106025 -0.923354 -2.0343 11.1381 -8.46096 1.61508
3 1 Ar 2.59464 14.5935 0.752917 -1.96065 2.06318 -0.469777 -15.5007 7.93371 9.31397
17 1 Ar 3.80633 14.4879 1.24628 -0.380409 -0.871952 0.644284 -33.8326 -4.14375 8.04784
376 1 Ar 4.21093 14.3726 0.317804 1.82248 0.392473 2.16032 -2.3386 4.34085 -0.421405
736 1 Ar 5.14129 14.7546 0.35364 -0.0543041 0.700824 -0.81429 4.67624 6.65849 2.69917
3580 1 Ar 5.70953 14.7965 1.1811 0.398597 0.195752 0.629925 24.7572 13.2733 21.4721
694 1 Ar 6.72052 14.2127 0.543314 -0.803686 -0.480123 0.0205935 -4.10725 5.97211 -12.4552
3940 1 Ar 7.0825 14.8996 1.23859 1.68707 0.0828596 0.741702 2.22693 22 -0.110999
3981 1 Ar 7.8007 14.3251 0.305941 0.274619 -0.557795 -0.747628 7.08321 26.2055 4.33984
337 1 Ar 8.20287 15.0045 1.13919 0.936094 -0.768413 -0.54921 -0.181948 -0.649475 -6.0816
698 1 Ar 8.15282 13.9525 1.31004 -0.822945 0.63389 0.445254 -5.33658 -5.12734 0.303808
308 1 Ar 8.98857 14.6815 0.306003 -0.656471 0.14785 -1.00053 -18.546 6.42575 18.3491
746 1 Ar 10.5065 14.6108 0.758788 1.30863 -1.05422 -2.00969 -18.2864 -10.5274 26.7104
381 1 Ar 11.3854 14.7131 0.280601 -0.0935994 -0.791597 0.241492 1.03596 9.1529 12.8944
352 1 Ar 11.4159 14.5052 1.35246 1.13408 -0.468138 -1.00289 -13.9596 36.612 -8.70493
350 1 Ar 12.2794 14.24 0.565944 1.14793 0.461088 -1.63529 -28.8879 -3.06054 11.709
3950 1 Ar 13.3981 14.2874 1.37232 -1.01582 -0.519025 0.111361 -7.80754 -12.3894 -4.93332
39 1 Ar 14.8014 14.3564 1.1188 -0.00678877 0.630708 2.19035 -3.47507 7.49987 2.53173
681 1 Ar 13.97 15.1855 0.615778 -0.683328 -0.101532 -0.611341 -5.01913 4.78177 6.11348
317 1 Ar 15.6829 13.9389 0.620211 -0.174928 0.0972472 0.115918 -19.5617 12.0898 1.89772
357 1 Ar 15.4013 15.0751 0.336027 -0.985845 -0.316919 -0.385901 4.11027 -11.5275 1.0032
1078 1 Ar 15.952 14.5179 1.52046 -0.432237 0.17806 0.621988 -1.86803 2.61392 -0.762875
724 1 Ar 16.4119 14.7991 0.58355 -0.0764891 1.3031 0.764395 2.52897 9.92802 24.4642
3607 1 Ar 0.654469 15.1098 0.480963 -0.505612 0.517292 -0.70221 -9.30782 12.2656 -9.37233
45 1 Ar 1.00898 16.3928 0.711207 0.341191 -0.189433 -0.0187017 8.51837 6.58908 -4.3791
761 1 Ar 2.94734 16.0256 1.37229 -0.18236 -0.350802 -0.230433 -11.3548 -6.22093 9.01195
49 1 Ar 1.8833 15.5965 0.94036 0.234379 0.632259 1.48395 5.91377 0.259323 8.7447
364 1 Ar 2.34172 15.2205 16.7131 0.245965 -0.201739 -0.200289 6.77225 7.43442 8.56384
3929 1 Ar 2.14819 16.5709 0.29435 -0.564667 -0.103575 0.97324 -3.17431 1.6149 -2.46286
459 1 Ar 3.31905 15.3826 0.660559 1.3194 0.330596 0.923015 9.40251 -13.3876 -8.49738
374 1 Ar 3.96721 16.2319 0.942788 -0.472943 -0.344745 0.238787 -2.17812 13.0001 -19.1888
3971 1 Ar 4.46298 15.5429 0.247753 -0.0844171 -0.126923 0.187175 -12.6708 -1.94279 -8.82783
3977 1 Ar 5.40195 -0.00941042 1.64779 -0.541037 -1.81077 0.17684 -4.09187 -31.1933 13.6691
380 1 Ar 5.10768 16.5649 0.543312 1.03361 0.730725 -0.470834 -5.29404 1.08447 21.706
740 1 Ar 6.38548 16.5161 0.32448 0.371229 0.533435 -1.15019 1.9634 -6.36909 9.58668
336 1 Ar 4.9544 15.6646 1.13488 0.633823 -0.365005 -1.0532 -15.7102 -5.78022 7.96069
3939 1 Ar 5.77685 15.6374 0.524002 0.417941 0.0670685 0.559963 13.852 3.98408 5.37317
460 1 Ar 7.13458 16.805 1.0694 1.73922 0.866036 0.217415 14.293 -10.3601 -18.0801
733 1 Ar 7.11444 15.7107 0.48872 0.44876 -0.058384 -0.00594051 -15.5279 -4.13095 -18.3831