ITEM: TIMESTEP
8200
ITEM: NUMBER OF ATOMS
4000
ITEM: BOX BOUNDS pp pp pp
0.0000000000000000e+00 1.6795961913825074e+01
0.0000000000000000e+00 1.6795961913825074e+01
0.0000000000000000e+00 1.6795961913825074e+01
ITEM: ATOMS id type element x y z vx vy vz fx fy fz
446 1 Ar 1.28068 1.36656 0.947891 0.0257419 -0.606364 1.36596 -26.7257 1.00433 -11.736
3966 1 Ar 0.353491 0.504921 0.794736 -0.483113 0.396271 1.5311 32.4354 -18.026 0.841808
798 1 Ar 0.931052 0.556014 1.652 -0.116616 0.666089 0.113181 7.42725 18.4838 -7.81457
91 1 Ar 3.16149 0.210892 0.72431 1.03346 -0.124031 0.173164 -19.3537 -8.99224 7.06831
12 1 Ar 1.92794 0.208174 1.23273 0.683174 0.280397 -0.395209 0.166576 0.780774 -3.07864
46 1 Ar 2.14916 1.1482 0.517912 -0.708346 -0.904805 0.521259 23.346 -8.44936 -13.8373
412 1 Ar 1.19854 0.673688 0.0897954 -1.59377 -0.913169 -1.01732 2.06904 -7.65867 -2.72373
489 1 Ar 3.27658 1.36611 0.79454 -0.241748 1.65879 -0.769294 -5.21896 -3.23897 -5.48194
1133 1 Ar 4.86945 0.573125 1.59396 -0.422865 -0.66583 -1.09295 -3.44122 -3.82554 -7.43528
457 1 Ar 5.81586 1.12819 1.21203 1.00846 0.969372 -0.134298 -17.5531 11.553 -2.68648
500 1 Ar 4.86917 1.43861 0.767752 -0.0977599 -0.959915 -1.25804 6.63432 -20.4413 -22.2684
334 1 Ar 7.51049 0.878193 1.42132 -0.381492 1.00479 -0.586559 6.14225 57.2035 -32.1506
780 1 Ar 7.58384 0.97159 0.354313 0.313278 1.12557 0.298872 4.37164 -14.0972 -4.16074
15 1 Ar 6.45836 0.96327 0.0952918 -0.0425912 -0.016869 -1.01715 21.3112 -17.7582 -9.04027
383 1 Ar 8.56463 1.0414 0.92192 -1.7786 -0.271069 -1.58671 -8.58451 -2.42342 -3.95279
384 1 Ar 9.54141 0.233382 0.26986 0.676288 -1.58374 -0.196871 3.85121 -3.3701 19.6862
3944 1 Ar 9.13839 0.735996 1.75115 -0.625278 0.105494 0.947036 10.6881 13.3624 -16.6464
3627 1 Ar 9.27221 1.18186 0.109749 0.436111 0.959556 0.136163 -0.458782 22.7444 11.5441
505 1 Ar 10.4191 0.73286 0.578712 -0.532163 1.0708 -1.15924 -11.3038 3.12829 4.56097
379 1 Ar 9.72113 1.48394 1.10853 -0.725155 2.2694 -1.49963 25.2461 -35.7795 0.193303
474 1 Ar 11.0462 0.512653 1.45608 -0.881314 -0.43524 0.479582 22.9089 24.4609 -37.3788
21 1 Ar 11.1249 1.50867 0.558457 -1.27609 -0.28713 0.658018 5.64049 -2.52602 8.76444
71 1 Ar 13.3504 1.46288 0.117863 -0.942969 -0.458536 -0.295482 13.7136 -20.7173 16.3478
109 1 Ar 13.7851 0.701791 1.46397 -0.259794 -0.228899 0.136826 5.42483 1.14256 8.85223
388 1 Ar 12.1865 0.313322 1.16377 0.0540297 0.408046 -0.211284 -1.32293 -18.5076 19.105
3991 1 Ar 12.1941 0.862301 0.330811 1.12935 1.8851 -1.26392 1.35055 19.8267 12.8558
429 1 Ar 13.293 0.364952 0.479764 0.0313932 0.137582 -0.491825 -4.11769 -2.01685 -0.505448
79 1 Ar 14.9127 1.0353 1.27959 -0.8679 -2.01781 0.345109 -2.73207 4.17793 1.70429
33 1 Ar 14.2474 0.926997 0.533431 -0.231612 -1.21442 0.548235 -11.22 -8.3631 -40.2464
795 1 Ar 14.6823 0.0709819 0.865263 0.866147 -0.00803953 1.16921 -25.2678 -8.08057 -2.2761
438 1 Ar 15.9337 1.17216 1.34834 -0.701976 0.199533 0.176682 11.7084 -20.3295 -0.18908
764 1 Ar 15.6905 0.177205 1.02533 0.695199 0.254883 0.665577 9.20392 -7.52226 22.0651
439 1 Ar 0.192303 1.38125 1.39194 -0.0863887 -0.839195 1.76671 5.01269 7.89269 0.918212
441 1 Ar 0.0820001 2.49674 1.8767 0.225638 -1.35466 0.698514 -4.17622 3.00423 -1.71087
84 1 Ar 0.585983 2.40442 0.921777 -0.818218 -0.0569579 -0.348563 2.72591 -1.96379 -6.70205
442 1 Ar 1.4666 2.14562 16.7055 0.574932 -1.86435 -0.148158 -9.0167 -30.2625 24.4802
487 1 Ar 1.82058 2.25257 1.25525 0.596116 0.106484 0.532637 -9.10888 0.355139 -1.72994
1170 1 Ar 3.94789 1.59944 16.7095 -0.670349 0.303256 1.42293 4.55103 -7.71378 -4.30887
811 1 Ar 4.13854 1.35411 1.48618 0.143734 -1.24275 -0.215715 -10.6545 -8.61602 25.9999
413 1 Ar 4.0397 2.116 0.812743 -0.969615 -0.126607 0.612987 -2.314 22.1539 6.42389
1134 1 Ar 2.48724 2.18012 0.462959 0.64257 -1.29584 0.703998 11.8054 -0.0608881 0.453677
375 1 Ar 5.09822 2.2943 1.25452 1.59448 -0.383568 -0.0251839 2.06362 7.02455 8.13138
95 1 Ar 6.845 1.64292 0.919327 0.0722485 1.13379 0.0917782 -11.8917 -4.68913 15.8855
64 1 Ar 7.84441 1.945 0.755934 0.0208855 0.226059 -0.645784 10.1183 -9.95169 14.5708
133 1 Ar 6.27861 2.59783 0.903642 0.858857 0.101082 -0.822694 2.21292 -6.74889 -6.41643
898 1 Ar 7.19301 2.75632 1.40012 -0.399894 0.118997 0.0514404 10.5099 -2.3832 7.85581
58 1 Ar 8.93062 2.04317 1.1998 0.061949 0.228957 0.324207 -38.4365 10.5109 -0.246835
432 1 Ar 10.0775 2.42249 0.866343 -1.25854 -0.234922 -0.591186 14.0251 14.295 4.23353
97 1 Ar 9.18842 2.58247 0.267823 1.07161 1.33068 -0.691087 -17.2183 -30.5423 17.9589
25 1 Ar 10.9539 2.47531 0.0619693 0.361542 0.752516 0.881309 -1.03001 2.1513 3.43064
912 1 Ar 11.2255 2.42983 1.20827 1.02414 0.223446 0.570609 -8.55787 -9.06783 -0.99426
73 1 Ar 11.6905 3.30175 1.66248 -0.0334439 1.02415 -0.367716 -37.9763 -28.2192 12.3661
469 1 Ar 12.9204 1.23154 1.06563 -0.208948 -0.903342 0.0417913 0.0366739 2.92281 6.30467
513 1 Ar 13.1638 2.43671 1.09361 1.73836 -0.398998 0.493222 -2.54963 -18.5174 -9.2395
31 1 Ar 12.2347 1.99931 0.713215 0.437823 0.370163 0.327134 -1.96555 -3.67549 -22.2348
36 1 Ar 15.2862 1.81523 0.623698 1.95028 0.704788 0.0607495 -0.731133 -5.84419 -4.71102
3674 1 Ar 14.9347 2.73369 0.222994 -0.891998 0.719927 -0.932811 10.8494 8.697 -8.90483
3716 1 Ar 14.2561 2.82883 0.971819 0.463199 0.333994 0.37005 -10.5074 -5.16104 12.2016
35 1 Ar 14.0611 1.73288 1.09125 0.589098 0.00218754 1.37166 -9.12248 18.517 9.68541
434 1 Ar 16.4339 1.86442 0.54275 -0.0552855 1.31121 -0.983187 1.29343 -2.91293 -4.31963
42 1 Ar 16.0582 2.80655 0.725693 0.0489564 -0.509304 2.51807 -0.612029 31.7095 -19.1317
115 1 Ar 15.2767 3.21059 1.45403 0.702558 -0.287066 -0.314117 -13.689 -6.0586 -0.780223
523 1 Ar 0.10514 3.53019 0.772855 -1.93631 -0.133867 -1.13235 4.6593 -8.48065 2.89378
124 1 Ar 0.391786 4.38988 1.48986 -0.685484 -0.294664 0.919765 2.93582 -12.2443 3.54519
3724 1 Ar 16.6024 4.42742 0.32391 1.04721 0.252107 -0.367272 -15.0674 6.49138 0.10006
48 1 Ar 1.52989 3.07829 0.523482 -0.918728 1.45417 0.216488 10.8044 -13.7416 27.8397
452 1 Ar 2.66368 3.16977 1.21254 0.157567 -1.02015 1.35383 0.84578 -2.91477 -0.285735
92 1 Ar 3.1351 3.5284 0.102046 -0.858249 2.44857 0.0397478 1.93414 -3.164 -4.28319
530 1 Ar 4.46813 3.16363 0.881584 -1.13667 1.62419 -0.0899225 4.05005 4.65153 -2.02793
893 1 Ar 3.66666 4.03261 1.26435 -1.51325 1.17042 -0.404519 -13.2909 -2.56216 -5.88225
3692 1 Ar 6.12668 4.735 0.0804382 -0.31343 -0.0319795 -0.959464 -20.8243 -10.2339 -8.64541
3731 1 Ar 5.27578 3.87666 0.209121 1.08972 -0.036801 -1.52847 3.56102 1.69378 9.0422
3653 1 Ar 5.54444 3.24302 1.25415 0.263077 -0.400447 0.73189 -18.5204 9.16156 2.13704
894 1 Ar 6.46214 3.1806 16.7486 0.953977 -0.390744 1.18135 0.687878 5.43768 7.6254
3657 1 Ar 7.035 4.16927 0.0936181 0.874821 -1.85721 0.522845 -3.51036 5.32097 -14.8384
90 1 Ar 6.568 4.95389 0.988923 -0.051311 -0.934834 1.03237 8.50022 1.73227 4.48859
136 1 Ar 6.24268 3.86015 0.77289 -0.441909 -0.38004 -0.733186 6.20449 3.09493 3.01363
20 1 Ar 8.06519 3.36881 16.5456 -1.22365 0.983926 -0.0923057 -15.4579 52.2285 -6.84619
3695 1 Ar 8.28573 2.89646 0.954409 -0.937948 -2.27918 0.768173 6.997 5.56557 1.51734
100 1 Ar 9.32915 2.98852 1.36207 0.283623 -0.876785 -0.785268 -3.40921 10.6457 -5.89777
538 1 Ar 8.82982 3.88006 0.978322 -0.526365 -0.702817 0.774996 -4.37823 7.84675 24.6102
974 1 Ar 7.62195 3.76981 0.814901 0.733182 0.250668 0.0286023 11.2463 -4.19984 13.7742
68 1 Ar 9.8781 4.20272 1.71685 -2.46315 0.914216 -1.78819 0.577487 -1.9873 1.01995
135 1 Ar 9.93324 3.88794 0.663317 0.970925 0.419958 -1.56708 -13.8514 2.54391 5.09235
102 1 Ar 9.46389 4.97086 0.0365067 -0.914783 1.57438 1.248 -5.83378 12.6864 17.5563
106 1 Ar 10.5478 3.32096 1.37732 0.337965 -0.00731852 0.0496159 4.00347 -0.00833915 0.460975
506 1 Ar 11.172 4.15474 0.920215 0.616395 -0.437751 0.0753876 -4.47375 9.31253 17.3444
66 1 Ar 11.5593 3.21305 0.643203 -1.11637 -1.90591 -0.331534 -14.6671 -1.62846 -20.5408
3671 1 Ar 12.3329 3.47826 0.011444 -0.416253 1.02622 -0.439535 24.8288 -0.197605 -7.76054
3747 1 Ar 12.4791 3.35117 1.06391 -0.362101 0.328399 0.871898 13.9974 -16.7852 -5.40942
146 1 Ar 13.3994 3.38605 0.566667 0.409237 -1.43251 0.165929 -10.2149 18.5164 15.3413
155 1 Ar 12.1929 4.6052 0.772489 -1.22234 1.61386 0.117075 6.37178 -7.97471 2.5317
3714 1 Ar 14.2425 3.8063 1.42484 -0.070869 0.917629 -1.24965 10.07 15.5003 9.21696
150 1 Ar 14.5146 3.76132 0.446764 0.16782 0.228945 -1.37802 2.99001 -2.2385 -21.6047
402 1 Ar 16.2137 3.59099 1.68998 -0.526408 -0.284 0.201208 14.617 1.18241 -2.1377
3642 1 Ar 15.6149 3.85393 0.626245 1.20616 -0.942696 0.848388 -1.01306 -4.94264 -3.8935
524 1 Ar 1.21415 5.46877 1.61605 0.35084 -0.766918 1.66198 -8.6562 3.99052 -9.20826
123 1 Ar 1.20503 5.93015 0.598378 -1.58045 -0.722159 1.07487 2.27293 1.176 5.94672
200 1 Ar 16.7249 5.26529 1.20471 0.144064 0.73489 -0.809076 -0.423196 4.56569 -12.4764
163 1 Ar 0.824417 4.67839 0.406332 -0.251865 -0.522489 0.436735 0.536874 7.86209 5.77831
3725 1 Ar 1.93974 5.09095 0.682456 0.334722 -0.230319 -1.19778 -1.57531 12.1147 0.223518
522 1 Ar 2.84194 4.45505 0.593724 -0.465396 0.785036 -0.722677 -2.14706 0.778282 2.15732
173 1 Ar 2.498 5.95457 1.16143 0.553147 0.812116 -1.77542 -0.486625 7.43135 -0.675354
526 1 Ar 3.01117 5.52956 0.127317 -0.387156 -0.950623 0.618529 14.8573 12.0179 12.473
129 1 Ar 4.50585 4.43593 0.808844 -0.0627242 0.834466 1.24516 27.6013 -0.859387 12.0618
3732 1 Ar 3.47512 5.35236 1.13639 -1.04872 -0.178554 0.852494 15.946 4.89801 -4.90174
174 1 Ar 5.18435 5.42929 0.813286 1.67548 -0.438342 0.228101 -12.0778 1.98981 24.8827
130 1 Ar 5.47948 4.3438 1.43109 0.240521 0.42606 -0.4311 12.1076 9.43013 -3.09202
178 1 Ar 4.25325 4.7105 2.11922 -0.764814 -0.116428 2.01598 12.4351 21.7496 -1.1745
3296 1 Ar 6.00964 5.778 0.341162 -0.467241 -1.00213 2.14452 13.686 -1.65756 -14.0182
3735 1 Ar 6.97056 6.12272 0.519199 -0.148845 0.254691 0.246209 16.3917 -8.47039 -5.55663
3740 1 Ar 7.75136 5.21959 0.460947 -0.000488812 -0.209471 -1.38128 8.10908 -0.913135 17.9148
219 1 Ar 8.91357 6.20957 0.117842 -1.38981 1.41898 -0.630699 12.4759 -0.970746 -0.858455
977 1 Ar 8.08648 4.57712 1.33721 -0.637009 0.51725 0.159899 3.3432 5.57464 -6.2201
180 1 Ar 8.6761 6.00985 1.15662 0.194691 -0.182707 0.456449 -4.57086 1.02145 -6.52748
3704 1 Ar 10.5913 4.81349 16.6004 0.571978 -0.470164 -0.570083 -17.4293 -9.74937 -5.49651
94 1 Ar 10.3544 4.87289 0.904188 0.0455414 2.62543 0.784359 -2.87754 5.56921 2.34817
494 1 Ar 9.14 4.92554 1.17616 -0.648652 -1.44133 0.586152 3.12118 3.21921 -2.14689
181 1 Ar 10.6953 6.00748 0.512453 -0.482115 -0.178042 0.264471 -17.4508 20.282 5.57884
148 1 Ar 11.4342 5.2047 1.40336 -0.103178 -0.431224 0.121847 3.16008 -6.83903 15.6074
191 1 Ar 11.2912 5.22915 0.407879 1.43284 -0.622377 0.34008 31.9526 -14.7305 -14.3526
190 1 Ar 13.5784 5.73002 0.0647747 0.965989 -0.034263 0.285195 7.79006 -6.34669 2.54115
989 1 Ar 12.5831 5.50511 0.427332 -0.270644 -0.36955 -0.867288 -0.702928 4.07769 -2.09254
196 1 Ar 13.521 5.61839 1.11809 -0.129131 -0.145487 -0.208184 -5.59197 9.76635 -2.19109
81 1 Ar 14.8286 4.62036 1.0323 0.922673 0.0301275 -1.14812 4.28568 -0.944696 12.1664
151 1 Ar 13.7352 4.57216 0.510582 0.763996 0.487024 -1.91911 -2.47774 3.51082 14.4251
559 1 Ar 14.6175 5.81644 1.17241 -0.966713 -0.857876 0.804952 -14.0187 16.9935 14.4276
120 1 Ar 15.89 4.63501 1.27417 -0.767541 -0.78356 -2.03644 3.36007 -4.27066 5.7477
561 1 Ar 15.6369 5.65871 1.17118 -1.07091 -0.442068 0.533916 15.8987 -28.9528 9.33108
564 1 Ar 0.0222527 6.14896 1.71715 -0.200268 -0.629581 1.55613 1.1218 7.80083 3.20464
126 1 Ar 1.5404 6.97356 0.0889306 0.744396 0.14421 0.695731 -5.58129 -2.08739 5.65396
3758 1 Ar 0.617159 6.97905 1.35132 -0.276298 -0.52118 -0.144816 0.471672 2.02116 -15.3468
1010 1 Ar 2.47464 6.64277 0.285876 -1.21375 0.369043 -0.062643 28.8736 12.04 19.5248
965 1 Ar 1.7109 6.78644 1.1643 0.47265 1.25178 0.405592 -2.64625 -1.18042 -0.314444
157 1 Ar 3.55788 6.62882 0.618862 -0.665279 -1.10978 -2.41506 -17.2021 -8.29335 25.2683
211 1 Ar 4.408 6.35354 1.2756 -0.643107 0.74311 0.855562 -14.3224 -2.63662 -14.848
243 1 Ar 4.14128 7.26538 0.101051 -0.830602 0.478874 -1.11639 -30.8991 0.805377 23.9526
606 1 Ar 4.23566 7.37817 1.23497 0.0357462 0.336944 -1.0616 -6.92004 12.567 -12.9717
653 1 Ar 5.33768 6.5283 0.600712 0.635477 0.183262 -0.297622 -13.0292 8.71607 0.309129
569 1 Ar 5.22944 7.35002 1.6383 -0.887606 0.429566 -0.138842 9.16328 2.19152 -8.89416
3375 1 Ar 6.27691 6.54455 1.16385 -0.0649682 -2.06036 0.608883 2.38991 -23.0089 12.0686
3779 1 Ar 7.04755 7.15145 0.281389 0.0291384 -0.555907 0.67825 5.47411 14.3583 4.53156
1019 1 Ar 7.66583 6.51486 1.24346 0.76245 0.396035 0.994107 -17.349 0.927952 -0.695338
3859 1 Ar 7.99879 7.78299 0.518419 0.16288 -0.0366339 -2.40632 2.81805 11.4697 -13.4009
215 1 Ar 8.01906 6.7462 0.341168 -1.39241 -0.603687 -0.60775 11.4859 -3.01053 -23.959
183 1 Ar 8.99179 7.3446 0.471655 -0.41098 -0.557674 0.246006 -24.8057 -17.9283 22.1955
544 1 Ar 9.86204 6.2674 1.19851 1.61047 -0.524729 0.244048 -4.54762 0.107513 -5.27134
3836 1 Ar 10.7161 6.96126 1.1536 -0.514121 0.674007 -1.14454 27.6565 -17.5914 -0.0335124
3384 1 Ar 10.0074 6.80775 0.106774 0.53424 -1.06647 -1.01402 3.68145 4.94575 27.1709
950 1 Ar 11.7741 6.24634 0.700835 -0.161349 -1.25588 -0.431525 -1.00343 1.08969 1.44789
713 1 Ar 11.9305 7.39459 0.706308 0.966995 -0.510719 0.779387 0.677819 6.58009 -25.4389
993 1 Ar 12.9784 6.48509 0.698793 1.55856 -0.250882 0.204748 -0.821263 5.56572 -2.13764
193 1 Ar 14.4871 7.10261 0.376179 -0.992529 -0.595546 0.596117 -4.07959 6.55907 -6.32184
960 1 Ar 15.0074 6.86514 1.24251 0.606829 -0.581673 -0.455808 -2.33459 2.66733 -6.7335
557 1 Ar 13.8808 6.7217 1.36606 0.227125 0.58873 0.189894 -1.67653 4.83243 -11.5093
158 1 Ar 16.6699 7.88164 1.05949 -0.425171 0.420949 1.18289 5.19445 1.75033 7.46209
605 1 Ar 16.5336 6.31616 0.65304 1.61581 -0.0604778 -0.344172 -10.157 -8.9504 16.3997
3790 1 Ar 15.8463 7.31935 0.592689 0.36773 -0.0966921 -0.0462872 -2.78522 -3.99 -2.87901
597 1 Ar 15.7897 6.45705 1.75693 -0.241894 -0.589915 0.587425 13.6893 14.5926 20.7182
554 1 Ar 15.3869 6.18034 0.367304 -0.125514 1.82108 0.0721368 5.1809 26.1689 0.781558
922 1 Ar 0.983337 7.78702 0.600947 1.05558 2.36026 0.49883 3.59084 0.984963 -0.0663183
201 1 Ar 1.65171 7.84693 1.56342 0.951068 -0.297093 -0.776504 -6.40344 3.10454 4.92911
3808 1 Ar 16.7582 8.91728 1.62139 -1.10633 -0.765461 0.0227335 -19.4215 6.74533 -46.0699
608 1 Ar 0.928483 8.69268 1.19955 0.224578 0.824008 0.520258 2.01426 6.93578 -5.31852
167 1 Ar 2.12752 7.88078 0.594096 0.92249 3.08782 -1.1237 3.63898 -2.58151 -5.09566
717 1 Ar 2.43304 8.815 1.14998 0.616094 0.69545 0.173356 8.93462 7.37182 2.26672
207 1 Ar 2.7191 8.33643 1.99495 -0.48462 -1.69069 0.358 -2.00204 -2.15349 -5.44039
652 1 Ar 4.1837 8.36981 0.196475 -1.7963 0.353818 -1.90256 18.4312 -4.3684 16.4874
204 1 Ar 3.73895 8.89169 1.57269 -0.92463 -0.988664 -2.7002 -16.1424 -23.9047 1.83639
607 1 Ar 3.42972 8.04899 0.982677 -0.400452 0.659269 0.413065 -6.03905 -0.750602 3.12834
3016 1 Ar 5.01227 7.6164 0.479591 -1.31124 0.765032 0.183759 -12.4815 0.127708 30.0774
297 1 Ar 5.56997 8.97348 0.026859 0.340879 0.00649652 1.36256 -14.846 3.79355 9.88846
220 1 Ar 6.01908 7.40575 0.72801 -0.497677 0.199717 0.418843 -4.55186 21.9804 17.2652
1014 1 Ar 4.71248 8.46238 1.20874 -1.1224 0.121549 1.32361 3.47432 -8.49333 2.81016
628 1 Ar 7.30783 8.5216 0.0234289 -0.952934 -0.151406 0.717201 28.9191 6.92892 -4.46297
581 1 Ar 7.25905 7.65102 1.22818 -0.574188 -2.12237 0.550084 -15.4942 0.577692 11.8399
660 1 Ar 6.42591 8.30895 0.40792 -1.04244 0.664013 -2.47691 -20.0876 0.32364 1.6169
141 1 Ar 9.09923 7.90479 1.56479 0.0222874 -0.598361 1.16283 1.06447 -8.34066 -4.81695
224 1 Ar 8.83327 8.48297 0.675559 -0.988409 0.419091 0.666691 -3.94808 -11.619 -0.0124187
1018 1 Ar 8.02831 8.61414 1.31066 -0.315855 0.82678 1.18892 -9.66384 3.17557 0.756192
623 1 Ar 9.89545 7.49536 1.04507 -1.5845 0.201422 0.274076 -13.3088 3.14825 -10.2135
3739 1 Ar 9.87179 8.48285 0.626437 0.327023 -0.753111 -0.267516 8.72987 7.17257 -5.1189
3821 1 Ar 9.62813 7.7476 16.6456 -0.875659 0.112067 0.61535 18.2998 10.4537 5.89605
586 1 Ar 10.7584 8.90874 1.15072 -0.962843 1.02097 0.355319 -6.51267 0.91335 3.11908
186 1 Ar 10.8233 7.9055 0.453166 0.708575 0.449749 0.0556489 -13.7269 -8.81611 3.45812
152 1 Ar 11.621 8.5348 0.65269 -0.811017 -1.84891 -2.40328 -27.4286 0.220292 1.05872
197 1 Ar 13.6261 8.37494 0.322624 -1.81701 0.95438 0.287937 -22.3222 12.3942 42.0762
231 1 Ar 12.3316 7.94673 16.6429 -0.133597 -1.42838 1.29486 0.107931 0.866586 -9.68961
195 1 Ar 12.3542 9.21221 0.439454 -1.44921 0.21121 -0.27771 21.3201 17.5683 -13.9433
353 1 Ar 13.1211 9.06428 1.32111 1.53504 0.0888116 -0.546643 -0.0381867 -14.892 3.17342
1354 1 Ar 12.5545 8.27489 0.811655 1.28038 1.3514 0.661326 32.9399 -6.3689 11.1748
3798 1 Ar 15.0369 8.075 0.843652 0.238394 1.06796 0.869388 3.89725 -8.82638 23.9681
3439 1 Ar 14.4418 8.86849 1.17132 0.116373 -0.593435 -0.811971 -18.2648 22.6862 -12.4376
594 1 Ar 13.9966 7.83353 1.15378 0.319804 -1.85179 -0.258533 0.788558 -6.91164 4.89312
603 1 Ar 16.2274 8.43404 0.207663 0.21616 0.289759 -1.33109 -2.78842 -0.567036 -2.68108
1117 1 Ar 15.3876 9.08503 0.752697 -1.11148 0.338558 -1.07508 4.39608 16.0209 -32.4713
279 1 Ar 1.86029 9.92156 0.224416 -0.674258 0.305445 0.131288 5.31894 -19.4203 4.92875
247 1 Ar 2.73443 10.0255 0.883907 -0.773958 -0.892704 -1.27717 -4.50817 3.60809 15.2155
649 1 Ar 2.97821 10.0428 16.6614 -1.4231 0.0234328 0.12542 10.5183 -0.750307 -10.7155
638 1 Ar 4.08054 9.85223 1.8572 1.03313 0.737799 1.30573 -33.0769 -5.35665 7.86221
217 1 Ar 3.86272 10.3202 0.617929 -0.474312 -2.25324 0.165101 4.10509 -9.10647 -1.94022
647 1 Ar 3.28768 9.15696 0.594088 1.32795 0.386745 -1.22285 5.35224 -5.10135 -1.50294
1414 1 Ar 4.25037 9.35959 0.873824 0.0321985 -0.863558 1.02792 26.3338 12.2787 -12.9286
175 1 Ar 5.65147 9.22172 1.38476 0.468971 0.652069 0.767913 -5.5424 -0.22411 0.848597
1051 1 Ar 4.95456 10.2755 1.73836 -1.37454 0.621473 -0.967049 33.3402 20.2716 -10.3294
655 1 Ar 5.13503 9.94923 0.698338 -0.328159 0.434969 1.52224 4.24675 3.30031 -4.73343
3904 1 Ar 6.40225 9.92306 0.797601 -0.106644 0.370395 -0.714295 -6.29174 -7.17277 -5.12475
1059 1 Ar 6.13196 10.0947 1.87821 0.799034 -0.235829 -0.407672 -7.88715 -1.19787 10.0083
304 1 Ar 7.4668 9.93419 1.45124 -0.632315 0.790554 -0.407878 -9.06033 -10.27 -0.849015
665 1 Ar 7.91521 9.40365 0.403757 -0.542508 -0.443269 -0.452044 0.269833 0.702156 -2.49296
3784 1 Ar 8.75625 9.48461 1.08317 -0.148864 -0.184721 0.537011 -31.0331 -34.0271 24.82
3867 1 Ar 8.93064 10.036 0.294147 2.1474 -1.38381 -0.0412881 -6.09985 18.9591 -0.0883155
260 1 Ar 8.29309 10.4001 1.06272 0.635524 0.432399 0.314294 3.61343 24.9074 1.21435
253 1 Ar 9.74141 9.46893 1.16044 0.0253198 0.628624 -0.164852 31.6115 -4.09854 -2.26554
3787 1 Ar 10.4484 10.2684 0.626718 -1.4797 0.112614 -1.60771 16.7554 2.88174 20.5906
669 1 Ar 11.5017 9.603 0.882347 -0.843945 -0.797074 -0.22898 -3.25702 17.506 9.05735
309 1 Ar 12.3957 10.5041 1.7172 0.829732 0.514408 -0.32248 5.89586 5.05161 -2.84496
636 1 Ar 12.12 9.09932 1.65146 0.095108 -0.604319 1.42984 8.49233 2.05051 -7.30157
271 1 Ar 12.6608 10.3807 0.660009 -0.595721 0.555901 -1.19289 14.1629 1.80683 18.7651
996 1 Ar 13.6232 9.89229 1.02095 -0.75803 -0.755745 -0.624553 -0.310745 14.9699 -2.43842
194 1 Ar 14.5726 9.84804 0.563076 -0.332453 -0.236547 0.447031 3.55351 0.443141 -8.93448
671 1 Ar 14.9951 11.3786 0.0292826 0.0301032 0.239535 -0.747746 -1.98037 -6.31107 17.1585
1073 1 Ar 14.5127 10.8289 1.17681 0.0719008 -0.396456 0.386802 -6.41046 21.7105 -11.1124
273 1 Ar 13.9356 10.7041 0.264511 -0.3681 -0.122674 -0.316171 -4.83909 -17.0794 13.9523
199 1 Ar 15.9748 9.8905 1.59047 0.26573 0.0418272 -0.821222 2.13352 -6.12479 -3.86607
315 1 Ar 15.4782 10.4284 0.56449 -1.22631 0.984439 -1.03707 6.86536 0.399542 16.2942
634 1 Ar 16.519 9.82738 0.432508 -1.62787 0.251414 0.114797 -15.6907 -5.66549 -4.24425
241 1 Ar 0.727109 11.402 0.404578 1.16961 -1.60627 -0.0175236 -18.14 -3.58604 4.20111
685 1 Ar 1.30943 11.9481 1.28323 0.313629 0.196282 0.221646 -27.0115 -11.2337 20.2947
208 1 Ar 0.239046 10.5585 16.6018 0.481867 0.901076 -0.642328 -3.68259 8.38022 -3.70146
212 1 Ar 1.31483 10.6769 16.6523 0.0842027 -0.430967 -0.556834 -10.1253 17.3537 -12.4499
648 1 Ar 2.35602 10.829 0.179218 -0.53877 -0.224491 -0.332197 0.349913 12.9366 -1.50924
245 1 Ar 1.71618 11.6708 0.393758 -1.07746 -0.677736 0.12679 22.2745 -0.599056 -11.6068
1090 1 Ar 2.25042 11.316 1.29725 -0.201068 1.4994 -0.563758 -1.31377 -5.68667 5.3461
689 1 Ar 3.17315 11.0625 0.810006 -2.27072 -0.516858 -0.679343 0.82754 9.72834 0.474852
1056 1 Ar 3.27253 11.8099 1.72233 0.882027 -0.869138 -1.19507 0.917776 5.98141 -4.36707
1089 1 Ar 4.51027 11.1799 0.856832 0.912162 -1.11196 -1.57479 9.85162 -4.18132 -19.0647
616 1 Ar 4.2638 11.2629 1.8373 -1.14757 -0.464592 0.251593 -3.73726 0.472611 18.6435
691 1 Ar 5.27767 11.9662 1.39556 0.05489 -0.233304 -0.534891 -5.03356 -9.13738 12.4752
1417 1 Ar 5.62677 10.9153 1.00857 1.14541 0.0168757 -0.192492 2.75514 0.48084 3.36525
250 1 Ar 4.95426 11.6872 16.406 -1.53402 0.414201 -0.510612 -30.9665 7.82245 30.4209
3895 1 Ar 6.68684 11.7653 0.671696 0.722892 -1.62925 -0.382363 -13.1028 -25.3922 -14.5466
259 1 Ar 6.72732 10.7635 1.32907 -0.328626 -1.0958 -0.491626 7.02675 17.4207 1.70244
1455 1 Ar 6.29377 11.7723 1.68689 0.41857 0.991119 0.777971 -3.05242 -16.6937 -10.6428
1422 1 Ar 6.5953 11.0429 2.63384 -0.897717 -1.12052 0.056494 -7.07614 6.20299 -14.646
232 1 Ar 8.63805 11.5364 1.12842 0.667834 1.17183 1.13923 2.09392 -1.90684 -1.49276
302 1 Ar 7.55648 11.5498 1.28167 0.305123 0.357832 -0.480426 -1.9178 5.593 -9.98728
300 1 Ar 7.9075 11.0233 0.162156 -0.30946 1.1433 1.38169 5.93971 -2.48876 6.32164
668 1 Ar 9.47252 10.8693 0.696432 -0.38764 0.368485 -0.478959 5.29469 -1.443 -3.45679
626 1 Ar 10.6863 11.4308 1.09934 -0.247966 -1.357 -0.724459 7.75633 -3.90695 -11.0388
3832 1 Ar 10.097 11.6359 0.0558292 0.153045 0.00734734 -0.612039 28.9779 -3.67749 3.3573
1461 1 Ar 9.7324 11.7493 1.27308 -0.0753336 1.27437 -0.648194 -14.528 -15.0463 15.8045
3866 1 Ar 11.1968 11.9056 0.114973 1.51995 -0.075925 -0.971648 0.142545 -3.20653 7.72116
1070 1 Ar 12.6019 11.7508 1.9205 1.39011 -0.0296824 -0.247411 -17.5115 -23.6472 1.79612
270 1 Ar 13.3837 11.0188 1.12088 -0.947264 -0.93601 -0.545891 -15.4641 13.8861 -4.19883
351 1 Ar 12.283 11.42 0.814619 -0.525412 -0.756064 0.408882 -0.00778878 29.771 29.1482
3876 1 Ar 15.317 12.2472 16.344 -0.16905 0.669899 1.24009 -10.9569 7.05686 9.8388
360 1 Ar 14.0002 11.7332 0.678119 -0.686583 1.25616 -0.679428 7.58834 -1.0689 -5.95566
3884 1 Ar 15.4557 11.9033 1.01873 -0.510126 -0.115444 -1.35423 1.11975 -6.89816 -2.49135
275 1 Ar 16.0355 11.0746 16.6374 -1.02755 0.649453 -0.397657 -0.941222 -31.8372 -8.32542
321 1 Ar 16.663 11.7757 1.00405 0.404471 -1.23357 -1.49882 -6.72632 -10.5132 8.60733
726 1 Ar 16.217 12.0152 0.038069 -0.974684 -0.609824 -0.161265 11.8797 36.7739 9.32993
687 1 Ar 16.4787 10.7216 0.991494 0.286883 -0.317084 -0.345189 0.105459 4.46288 2.69454
288 1 Ar 0.217973 12.6301 0.587736 0.945609 -0.405998 1.30498 27.078 -13.8917 10.4471
368 1 Ar 16.5551 13.383 0.173343 -1.82676 -0.980846 2.80686 -13.1417 38.1413 2.16948
692 1 Ar 1.47684 12.733 0.619581 0.309108 0.629768 -0.61153 1.64634 8.6446 -6.78969
686 1 Ar 2.71922 12.1096 0.727604 1.2048 -1.0386 -0.558431 -3.58883 3.26969 -3.38596
361 1 Ar 2.05417 13.6948 0.227425 -0.626791 0.940327 -0.519287 1.86899 -8.28556 9.49545
725 1 Ar 2.01347 13.4914 1.26917 0.717257 0.656374 -0.445765 -6.59718 -2.47901 1.59203
3925 1 Ar 2.97427 14.0305 0.798231 0.743126 -0.290384 0.879082 9.80798 1.62929 -12.6773
762 1 Ar 4.04602 13.4168 0.660565 -0.195865 -0.288535 -0.53065 -2.89317 -18.3081 16.001
690 1 Ar 3.78249 11.957 0.727185 0.449282 -0.553925 0.0960942 2.87552 7.25936 0.531009
650 1 Ar 5.9615 12.6765 0.967728 0.731569 -0.586189 -0.343449 -2.88066 2.27821 -10.4382
1456 1 Ar 4.77614 13.2699 16.6302 -0.626526 -1.48463 -0.186242 -4.67044 11.9175 -5.62063
332 1 Ar 5.53733 13.7343 0.598047 0.377025 0.0354504 -0.75846 0.809749 -3.10728 -15.5633
730 1 Ar 4.831 12.5688 0.673592 -1.06678 -1.11925 -0.200062 -9.8481 1.32864 -8.06237
1094 1 Ar 6.47077 13.2104 0.154186 0.709932 0.987929 -0.660954 2.96936 1.41008 -3.18388
3900 1 Ar 7.04418 12.6364 0.956428 0.319426 0.182242 1.02511 10.7315 17.7333 17.1717
339 1 Ar 6.97402 13.7112 0.966049 0.973003 0.677082 -1.48229 11.2201 12.8399 3.82944
295 1 Ar 8.60792 12.4948 0.531202 -1.05199 -0.28044 -0.330655 -15.6498 6.02081 -6.34975
296 1 Ar 7.65964 13.2503 0.377862 -0.395554 0.24991 0.24813 14.7363 10.959 -6.61027
305 1 Ar 8.48549 13.7922 0.707795 0.690746 1.25571 0.224056 11.9924 12.2848 -10.4596
1538 1 Ar 8.0619 13.2156 1.423 0.401114 0.680629 1.61009 -29.9528 -25.8076 -19.933
662 1 Ar 9.63992 12.5055 0.617294 2.19733 -0.125001 0.297211 13.5911 17.2621 -8.30935
707 1 Ar 10.9489 12.8904 1.01882 1.36366 -0.2784 -1.22003 -20.3226 5.71824 -9.24943
747 1 Ar 9.92919 13.2808 1.53909 -0.480704 0.563237 -0.521678 1.49191 7.00413 -11.4318
3941 1 Ar 10.5913 12.9891 16.7312 0.0830058 0.21433 -0.338358 -1.66774 -5.40811 8.18638
3512 1 Ar 11.5107 12.1053 1.27352 0.951782 -2.38321 1.09872 23.3958 -11.6883 -32.2648
749 1 Ar 11.8499 13.3849 1.26112 1.22918 -0.0306865 -0.350662 0.787382 8.30143 3.71089
346 1 Ar 10.9445 14.3919 16.6729 0.312708 1.87529 1.5085 -19.9542 -25.8007 16.6869
385 1 Ar 11.6312 12.9373 0.189416 -0.596236 -1.66612 1.22522 1.5196 1.50475 -1.85405
354 1 Ar 13.2389 12.4034 0.32613 -0.0947629 -0.303938 0.0618587 22.3923 -18.1624 -20.2122
387 1 Ar 12.4163 12.5669 0.885862 0.434023 -0.80407 1.05556 -11.3359 -1.15908 13.7022
3912 1 Ar 13.5526 13.2087 0.842727 0.0450653 0.932844 0.710103 3.23198 16.7314 1.89402
3591 1 Ar 13.308 12.2574 1.43417 -0.680448 0.250694 -1.23787 21.4439 10.6564 -21.4604
3959 1 Ar 14.3606 12.7694 16.6977 0.190768 0.57442 -0.0238403 9.8855 -24.5381 16.0256
670 1 Ar 14.4743 12.6323 0.981009 0.769305 -0.692694 0.86667 8.10643 4.4846 -2.36678
356 1 Ar 14.1532 13.7023 1.59282 0.67095 0.464371 -0.000771132 2.78666 -1.59615 7.58695
3924 1 Ar 14.527 13.6453 0.473908 1.34695 0.608209 -0.540879 1.39762 -0.798402 8.91984
318 1 Ar 15.7676 12.8978 0.753972 -1.26838 0.542083 0.469234 -0.69607 -0.146207 -8.0648
282 1 Ar 1.71565 14.6605 16.7194 0.419731 1.28136 -1.2504 -4.76209 4.92143 -8.84936
758 1 Ar 0.107098 14.4726 0.948054 -0.0768423 1.65211 -0.615969 -5.46268 -0.2331 -0.000888047
1171 1 Ar 0.990237 13.757 0.548383 0.853138 0.351606 -0.270186 -1.72512 0.699431 0.0482974
365 1 Ar 1.06126 14.9968 1.04039 -1.53654 -0.100775 -0.283131 4.59249 -25.0493 -45.5516
3 1 Ar 2.15326 14.7098 0.893456 -1.15455 -0.231479 -0.898458 -1.17621 -1.82569 7.1326
17 1 Ar 4.06368 14.4515 1.22639 0.0337003 1.73546 0.708494 -7.54131 -0.759594 12.104
376 1 Ar 4.24457 14.2982 0.215577 -1.0734 -0.5204 0.323804 8.9973 8.40908 -8.96924
736 1 Ar 5.39936 14.7954 0.309656 -0.824746 0.989097 0.686085 -5.49119 0.362457 11.4644
3580 1 Ar 6.12745 14.9021 1.35745 0.509501 -0.193177 -0.824322 -0.828063 3.32381 -0.93942
694 1 Ar 6.38628 14.3871 0.276669 -0.173741 0.500249 -1.1978 11.9987 1.21109 2.84048
3940 1 Ar 7.21331 15.1081 1.1194 -0.503151 0.00687709 -1.52635 -4.1777 -2.62923 0.646354
3981 1 Ar 7.58033 14.4561 0.388393 -0.433785 0.301255 0.566218 6.25752 -20.9744 30.5375
337 1 Ar 8.44696 15.0816 0.928554 -0.0608724 0.895541 0.447962 -0.202699 7.57134 5.11717
698 1 Ar 8.13822 14.3475 1.589 1.09354 -0.793887 -1.42689 -10.0357 -25.273 -31.0627
308 1 Ar 9.02345 14.5663 0.199706 0.473401 -0.184265 -1.81483 -9.19964 10.1648 -4.8626
746 1 Ar 10.5326 13.8174 0.793132 -0.851327 -1.82947 -0.196249 -4.78218 11.9774 -5.607
381 1 Ar 11.5941 15.1412 16.6619 -0.0754964 0.944211 0.157699 17.5291 22.151 39.3423
352 1 Ar 11.2398 14.5847 1.22456 -0.441675 0.489941 1.38517 9.38797 -4.29146 -6.43375
350 1 Ar 12.2562 14.357 0.88208 1.58562 -1.03659 1.42991 -1.32157 -14.4873 3.21347
3950 1 Ar 13.3443 14.3408 1.3917 -0.221478 0.0437858 1.4481 -7.46505 3.40312 6.56804
39 1 Ar 14.8738 14.5781 1.07503 -0.0489154 0.153763 -1.37464 -15.5878 3.0099 9.50238
681 1 Ar 13.9553 15.0861 0.806449 -0.942719 0.0490067 0.721015 4.70299 -5.81158 -3.5854
317 1 Ar 15.5525 13.9886 0.575575 -0.137912 0.614218 -0.100895 15.6245 -4.43768 -6.83382
357 1 Ar 15.1046 15.0805 0.156282 -1.23913 0.105319 0.098248 5.26945 5.73162 -2.23019
1078 1 Ar 15.7074 14.412 1.70201 1.18794 -0.371092 0.82324 -1.83122 3.03737 9.29199
724 1 Ar 15.8678 15.11 0.915841 -1.17299 -0.0643325 0.0318143 7.43415 -0.608772 -2.02465
3607 1 Ar 0.290971 15.5008 0.287031 -1.28367 1.03333 0.716686 -3.77817 -1.55105 6.49455
45 1 Ar 0.851525 16.3384 0.905284 -1.35467 -1.62382 -0.36652 -6.31059 7.64075 -7.88816
761 1 Ar 2.83525 15.9112 1.0112 -0.260731 0.46139 -0.155414 8.79403 -0.832613 17.6295
49 1 Ar 1.73084 15.8036 0.909124 -0.229419 1.1405 0.217465 19.4996 -4.25539 0.28104
364 1 Ar 2.59652 15.3267 0.170331 0.630868 -1.57746 -0.967364 -10.3026 0.0851397 -21.6579
3929 1 Ar 2.42988 16.3922 0.182878 1.07134 0.822055 -0.120152 -10.1416 10.2117 -8.43385
459 1 Ar 3.54212 15.0587 0.4645 1.41424 0.488586 -0.142105 1.46441 0.941865 12.9221
374 1 Ar 3.93335 16.0833 0.698484 -0.84505 -0.239935 0.342652 -0.475854 1.39582 4.88689
3971 1 Ar 4.5121 15.3282 0.0891027 2.22812 1.12006 -0.494147 2.0878 -15.7539 -5.73665
3977 1 Ar 5.70154 16.6143 1.64958 0.682979 -1.1892 -0.288624 -0.641373 0.555238 4.80739
380 1 Ar 5.1375 16.3657 0.740331 -0.488523 0.251141 0.210426 -14.9356 4.63254 -3.02526
740 1 Ar 6.50144 16.5968 16.7832 -0.32851 0.487025 -0.353187 -8.68545 23.6705 1.76892
336 1 Ar 4.77383 15.3379 1.0767 -0.0737323 -0.20365 0.226844 3.7334 4.74051 7.93416
3939 1 Ar 5.92668 15.7689 0.487011 -0.0290027 -0.59685 -0.104663 10.4811 -10.6036 -3.328
460 1 Ar 7.41841 16.7249 0.791369 1.65462 0.989044 -0.946146 -27.1613 28.7552 -14.8676
733 1 Ar 7.02561 15.7989 0.285414 -0.0235128 -0.257083 -0.0366787 7.65001 -10.0589 11.5242
3575 1 Ar 6.59085 16.0085 1.37518 0.216786 0.233674 0.434472 3.06829 0.809778 0.356885