ITEM: TIMESTEP
8400
ITEM: NUMBER OF ATOMS
4000
ITEM: BOX BOUNDS pp pp pp
0.0000000000000000e+00 1.6795961913825074e+01
0.0000000000000000e+00 1.6795961913825074e+01
0.0000000000000000e+00 1.6795961913825074e+01
ITEM: ATOMS id type element x y z vx vy vz fx fy fz
446 1 Ar 0.97053 1.57748 0.867556 1.32681 0.769872 0.290818 1.54583 -12.6901 2.48417
3966 1 Ar 0.0647476 0.740742 0.766191 0.232277 0.826164 1.1253 9.04543 -6.07022 7.37977
798 1 Ar 0.95623 0.761138 1.59014 -0.276245 0.305736 -0.767942 -12.0011 -23.364 -45.8714
91 1 Ar 2.9336 0.426681 1.02852 1.17333 -0.739303 -0.0920812 -6.60375 -31.3413 -6.65992
12 1 Ar 2.03186 16.7276 0.833263 -0.00252961 0.56569 0.944565 -3.86837 2.59395 4.14125
46 1 Ar 2.11885 1.07016 0.297871 0.0233512 -0.816967 -0.305183 1.66722 0.688732 0.281443
412 1 Ar 1.1821 0.484988 0.495237 -0.138519 0.0276076 0.285856 -2.49134 0.295485 -1.72914
489 1 Ar 3.13126 1.36797 1.18907 -0.611318 0.588424 -0.749263 10.2331 37.2443 -3.63131
1133 1 Ar 4.97733 0.634478 1.52434 -0.0105103 0.359687 -0.741616 -21.3531 -18.8678 11.8584
457 1 Ar 5.72737 1.05327 1.03834 0.451873 0.383206 0.0184393 24.871 11.1639 -13.6944
500 1 Ar 4.642 1.37314 0.707007 2.98747 -0.499998 -0.000502122 22.2571 -12.7123 12.1164
334 1 Ar 7.77385 1.01358 1.52788 -0.795885 -0.182054 -0.345364 7.60072 15.6215 -6.7782
780 1 Ar 7.46013 1.09038 0.552743 -0.829884 0.723733 1.20174 3.84783 17.4691 -16.3099
15 1 Ar 6.45627 0.767698 0.138953 -1.54645 0.128354 0.542743 -15.1992 19.5849 2.39654
383 1 Ar 8.42382 0.696931 0.758367 1.0333 -0.964271 -0.382796 -5.03612 -6.54755 0.131903
384 1 Ar 9.26736 0.16771 0.159705 0.310505 -0.504792 -1.02222 24.0391 -32.3983 4.88482
3944 1 Ar 9.39779 0.744434 1.07702 0.320807 -0.550552 -1.0001 -14.0113 3.76805 -4.58095
3627 1 Ar 9.02312 1.1158 0.00319981 0.459719 0.671334 -0.605026 -7.00963 35.6842 -0.134934
505 1 Ar 10.1283 0.843983 0.362972 0.155676 1.07 -0.0783242 13.2263 -0.357232 -10.9725
379 1 Ar 9.75118 1.73579 0.876849 0.263007 0.216833 0.14359 -6.5519 -10.2713 9.42145
474 1 Ar 11.1896 0.520112 1.28127 0.368401 0.176295 -0.366243 -11.7912 -11.8955 -6.0025
21 1 Ar 10.9058 1.65461 0.517012 0.389364 -1.31681 0.745595 11.1875 -17.4161 6.95593
71 1 Ar 13.2443 1.84022 0.141114 1.6595 0.671365 0.521034 -3.8603 1.37904 -6.89884
109 1 Ar 13.8477 0.656082 1.39779 1.72079 -0.155121 1.01811 6.48254 -6.32162 7.35014
388 1 Ar 12.2061 0.298845 0.939299 -0.108672 -0.0345373 -0.277523 13.4915 22.0737 11.2107
3991 1 Ar 12.2356 1.23017 0.335509 2.59227 -0.0902999 1.3047 18.0591 -19.4224 -1.17682
429 1 Ar 13.1951 0.276107 0.597736 0.0508139 -0.974329 1.13904 -5.38053 -1.57109 5.02685
79 1 Ar 14.9079 0.750755 0.947084 -1.47747 -0.430439 -0.412778 8.23986 5.94878 5.54558
33 1 Ar 14.127 0.45702 0.209632 -0.40746 -0.646982 -0.581811 9.59755 -6.61072 -5.18097
795 1 Ar 14.5973 16.5534 1.05929 0.306097 -0.732914 0.120796 -12.8678 2.88251 0.132778
438 1 Ar 16.0023 1.14617 1.25134 -1.13093 -0.0987891 0.475437 -3.15308 -10.1851 6.95594
764 1 Ar 15.5275 16.8114 1.52786 -0.125896 0.616881 -0.952883 14.5726 10.4729 -5.41457
439 1 Ar 0.209468 1.40564 1.7466 0.288159 -0.0874563 -0.731284 -17.7889 16.6499 0.343214
441 1 Ar 0.305649 2.51542 1.38497 0.57139 -0.961538 -0.889511 5.97946 -2.22697 5.30134
84 1 Ar 0.84439 2.47079 0.346373 0.719677 0.219813 0.0492309 3.98146 9.35144 -8.32499
442 1 Ar 1.91548 2.21519 16.5934 0.370794 1.32071 0.477768 11.0533 -16.2195 6.7735
487 1 Ar 1.96941 2.04067 0.850256 -0.233874 0.354771 0.347243 -1.69155 -8.41875 3.6901
1170 1 Ar 3.96416 1.7576 0.0785885 0.209107 -0.154534 0.159364 -35.6811 -26.2378 -15.1771
811 1 Ar 4.03653 1.09886 1.73359 0.707864 -0.975375 0.549719 -1.04369 2.09842 -3.34044
413 1 Ar 3.96897 2.05877 1.11041 0.158493 -0.292283 -1.29376 1.18377 -0.561874 7.9806
1134 1 Ar 3.1525 2.41187 0.593619 1.13843 -0.728877 2.2029 -11.2253 2.13962 -7.71718
375 1 Ar 5.34139 2.10586 1.19652 0.521906 -1.04083 0.110824 -0.498441 3.48014 4.38743
95 1 Ar 6.66282 1.68617 1.0633 -0.744807 0.511624 -0.0811283 -10.8224 -10.035 1.53876
64 1 Ar 7.6182 2.06428 0.900928 0.244344 0.89161 -0.32104 -5.15302 15.7316 4.66899
133 1 Ar 6.45771 2.74097 1.0506 -0.496582 0.18792 0.201193 -2.83436 0.502934 0.708058
898 1 Ar 6.94154 3.41094 1.89493 0.150111 0.514094 -0.926015 28.5795 -1.68609 -25.618
58 1 Ar 8.59953 1.7468 0.936361 -0.957371 1.18311 0.938983 7.7159 -10.5757 7.02114
432 1 Ar 10.2977 2.53548 0.552443 0.564588 1.17481 -0.69468 21.7666 30.6842 11.2371
97 1 Ar 9.12229 2.41851 0.340046 -0.0698064 0.433558 -0.106031 12.5538 10.9473 -6.06292
25 1 Ar 11.4283 2.47041 0.0689105 -0.496498 -1.64209 0.80927 -1.84439 -17.8055 5.5458
912 1 Ar 11.3372 2.36169 1.205 -0.531083 -1.48982 -0.36606 -1.8261 4.11167 -6.59568
73 1 Ar 11.712 3.34399 1.42102 0.4219 0.0487525 -0.991228 10.3934 -22.1718 -9.25254
469 1 Ar 13.0731 1.32638 1.04942 -0.573451 -0.789893 -0.271414 -6.64187 -3.75531 7.66747
513 1 Ar 13.4516 2.38208 1.01662 0.320316 0.183854 -0.357124 7.71194 -2.49565 9.11664
31 1 Ar 12.385 2.15839 0.713995 0.794873 -0.715421 -0.633302 -10.527 2.73911 19.8939
36 1 Ar 15.359 1.90012 0.806543 0.498338 0.952874 0.582731 -8.57291 1.19681 -15.4861
3674 1 Ar 14.5663 3.37264 0.00685374 -0.110528 1.68199 0.130724 -27.4062 -7.89332 27.2311
3716 1 Ar 14.4632 2.78931 1.11848 0.873672 0.541991 1.23632 -22.1883 -3.23844 -9.55224
35 1 Ar 14.147 1.44717 0.716141 0.0414979 0.328467 -0.462001 -25.7247 16.6909 26.5579
434 1 Ar 0.0191387 1.74355 0.397788 0.279685 -0.831522 0.120544 -2.57351 5.28825 3.14727
42 1 Ar 16.2924 2.70169 0.764501 -0.088648 -0.260401 -0.320715 -5.18977 1.02457 -14.4414
115 1 Ar 15.4273 2.9539 1.31697 0.485466 -0.421025 -0.549147 19.3546 2.93344 5.84661
523 1 Ar 0.330357 3.43003 0.561298 -0.294044 -0.467329 -0.148188 -3.2794 4.16113 4.34043
124 1 Ar 0.215933 4.4997 1.59649 -0.365222 -1.63454 -1.43354 23.1259 -10.9884 2.58181
3724 1 Ar 16.6497 4.57793 0.551658 -1.48307 1.75448 1.13896 -6.89269 -4.35893 -7.57737
48 1 Ar 1.60812 3.68126 1.00495 -1.54604 0.198083 0.535416 -6.21736 -5.39007 7.45626
452 1 Ar 2.41472 2.9018 1.23093 -1.16443 0.447068 0.723075 2.81468 11.7425 9.04089
92 1 Ar 2.73576 4.03555 0.241909 -0.653114 -0.311732 1.69515 9.57009 -11.5335 -2.5796
530 1 Ar 4.45091 2.97801 1.31534 1.24294 -0.25303 -0.599351 11.9454 -1.58059 -11.4028
893 1 Ar 3.78049 3.91731 1.21128 0.736268 -0.542763 1.43148 -19.6545 -13.9939 -13.6526
3692 1 Ar 5.95138 4.57273 0.474641 0.200674 0.52805 -0.0875614 8.81177 -0.0210707 -4.23487
3731 1 Ar 4.79888 3.81737 0.572655 -0.6719 -0.616988 0.323866 9.04957 -9.78718 16.6585
3653 1 Ar 5.56642 3.20949 1.6069 -0.0822682 -0.069499 0.713697 -3.9516 1.30893 -5.40295
894 1 Ar 6.37234 2.9468 16.7584 -0.170921 -0.499451 -0.584002 28.0667 8.95611 0.61851
3657 1 Ar 7.04226 3.99242 16.6673 1.72763 0.802396 1.07474 1.85181 -20.2842 2.08757
90 1 Ar 6.9601 4.83566 0.863263 0.679532 -0.203526 -0.96911 -0.651457 -5.86871 -3.01826
136 1 Ar 6.36167 3.81695 1.11023 -1.13528 0.198766 -0.129204 4.47406 0.088099 -7.00051
20 1 Ar 7.53694 3.12791 15.487 -1.02245 -0.122917 0.399512 4.00597 -3.28047 25.4671
3695 1 Ar 8.33554 2.96611 0.931103 -0.0692467 -0.983428 -0.52642 -27.4273 -36.8943 10.3592
100 1 Ar 9.59984 2.81433 1.29628 -0.6499 0.617341 0.590727 -14.3258 -3.95508 -3.08616
538 1 Ar 8.94059 3.69343 0.747842 -0.636363 0.00694737 -1.16898 26.2795 27.6784 -11.7325
974 1 Ar 7.84504 4.0483 0.699047 -0.25123 -0.97443 -1.72507 0.176171 6.03011 1.10431
68 1 Ar 9.96901 4.17836 1.52463 -0.15673 0.802516 -0.483741 -2.4363 -1.93102 3.27034
135 1 Ar 9.98221 3.52965 0.557436 0.127463 -0.65426 -1.34137 -15.4256 16.6396 -18.0204
102 1 Ar 9.22555 5.46555 0.102482 -0.305692 -0.847357 -0.42319 6.86204 6.41857 1.61494
106 1 Ar 10.5701 3.30022 1.33782 1.00278 0.437596 0.386768 6.291 -13.4417 -6.69329
506 1 Ar 10.907 4.11363 0.723402 -0.181652 -1.05924 0.665218 -5.85282 4.24118 -10.739
66 1 Ar 11.8318 3.34535 0.317545 -0.632725 -0.862307 -0.625228 0.315908 12.1971 4.33981
3671 1 Ar 12.6665 3.61907 16.5039 -0.41646 0.945713 0.78587 8.56431 12.1583 13.8061
3747 1 Ar 12.7105 3.11833 0.958724 -0.133872 -0.336973 -0.770574 4.40718 31.435 -16.3331
146 1 Ar 13.6651 3.78848 0.305692 0.657783 1.66398 -0.132751 -11.0282 7.17122 5.46888
155 1 Ar 11.9711 4.23425 0.835669 -0.314984 0.102 0.640051 9.44494 9.28811 5.79714
3714 1 Ar 14.4055 3.97981 1.4362 -0.377057 0.0371569 -0.076423 -14.6055 7.10667 10.7812
150 1 Ar 14.5469 4.47947 0.0509956 0.0943433 0.955318 0.500195 15.8833 -6.90125 -0.922058
402 1 Ar 16.3548 3.6139 1.51998 0.0296087 0.539967 -2.33969 4.73825 -8.36181 -8.28522
3642 1 Ar 15.2272 3.86092 0.86615 0.215835 -0.456011 0.411425 16.0854 10.1871 -20.2347
524 1 Ar 1.06331 5.46843 1.90426 -0.0384298 0.28477 -0.630214 4.79015 -24.8294 20.2529
123 1 Ar 0.73461 5.89193 1.11353 -0.0548917 0.609749 0.900041 2.94982 26.4243 -32.4729
200 1 Ar 16.6706 5.37282 1.26096 -0.537554 -0.0580515 0.98582 -2.85252 17.7756 -5.1436
163 1 Ar 0.898141 4.84485 0.767668 -0.429545 0.50117 1.46801 6.4822 2.14501 5.24062
3725 1 Ar 1.34893 5.21379 16.4241 -1.09047 2.4402 -0.452598 5.20963 9.78439 0.49223
522 1 Ar 2.937 5.06492 0.88684 0.0134342 0.477316 -1.35824 16.4063 4.86418 39.1285
173 1 Ar 1.59693 5.81601 0.523302 -0.672054 -0.066936 -0.991844 6.02993 -1.90407 -4.44053
526 1 Ar 3.4353 5.92332 0.0562063 1.06236 0.0765295 1.25505 3.83929 2.76886 -1.0971
129 1 Ar 4.48549 4.5977 1.41999 0.0963899 0.801822 -0.0590369 13.408 11.1653 -6.33941
3732 1 Ar 3.61955 5.63045 1.64664 0.826278 0.604117 -0.638423 -10.0166 -7.52349 1.78577
174 1 Ar 4.74775 5.61234 1.27535 0.30922 0.281715 -0.0106952 19.5462 -6.83813 36.7261
130 1 Ar 5.68391 4.50082 1.54593 -0.42028 2.39239 0.200189 -11.7583 -1.64078 0.615735
178 1 Ar 3.70999 5.11681 2.63897 -1.27892 -0.269615 -1.53236 15.6032 -1.10036 2.90798
3296 1 Ar 5.70988 5.57467 0.705888 -0.351068 0.647521 -1.32416 -6.46164 12.2723 -6.6535
3735 1 Ar 7.03543 5.90813 0.196789 -0.230446 -0.600883 -1.78165 -1.44273 0.0919181 11.8546
3740 1 Ar 7.78909 5.10398 0.250745 0.212633 -1.01813 -0.30338 1.20095 4.93918 6.99038
219 1 Ar 8.91074 6.49812 16.7643 -0.81883 -0.318776 1.28417 6.58805 2.76945 -2.78152
977 1 Ar 7.83632 4.84249 1.51075 1.92228 -0.449501 1.22467 1.13802 4.92634 -8.9067
180 1 Ar 8.37653 5.98759 0.774351 0.595756 -1.28491 -0.85734 17.1042 -4.40957 -5.75696
3704 1 Ar 10.0875 4.7301 0.0398162 0.065604 0.47496 -0.0554252 -5.1849 1.00364 1.32722
94 1 Ar 10.2619 5.1405 1.11548 1.10683 -0.416274 1.35975 -6.31508 -6.5379 6.83427
494 1 Ar 8.77017 4.71308 0.951967 -1.90038 0.340687 0.783691 -3.56395 5.18214 -3.85521
181 1 Ar 10.609 5.68073 0.340664 -0.344758 -0.938819 -0.597747 -4.69672 11.4772 -20.233
148 1 Ar 11.4303 5.28162 1.40695 -0.508506 -0.843418 0.619548 -7.38658 -2.75059 -4.92268
191 1 Ar 11.5049 5.05109 0.283722 0.375289 0.0374327 -0.12243 -11.3349 -10.5258 14.6907
190 1 Ar 13.8779 5.72652 0.251498 0.822505 0.230708 0.728518 -1.94669 10.4625 -11.4509
989 1 Ar 12.8203 5.90294 0.377845 0.71617 0.424724 0.200533 -12.2265 11.7972 7.70095
196 1 Ar 13.3942 6.078 1.32418 0.633678 -1.70424 0.489237 3.0133 -16.4367 12.1676
81 1 Ar 15.0318 5.00647 0.827751 -0.878127 0.524186 0.891009 16.228 -15.6372 12.6743
151 1 Ar 13.9671 4.88241 0.806648 -0.762869 -0.101362 0.415001 -9.55827 -9.7274 10.9461
559 1 Ar 14.586 5.84256 1.23901 -0.255221 0.920483 0.225253 -3.05489 19.7938 -2.64604
120 1 Ar 15.954 4.6507 1.42007 0.864454 0.829772 -1.52963 -14.3204 -1.70508 -27.1329
561 1 Ar 15.7214 5.69167 1.59006 0.778828 -0.435639 -1.81214 0.549674 19.7566 -8.45124
564 1 Ar 16.8017 6.2005 1.92656 0.605124 0.12451 -0.222796 -2.81006 -6.33443 -25.4863
126 1 Ar 0.826936 6.7622 0.471273 -0.500475 -1.27332 -0.234564 9.40658 -0.412055 -22.9339
3758 1 Ar 0.579596 6.94524 1.4421 0.315911 -0.530241 0.560013 -4.03096 -6.54693 11.6268
1010 1 Ar 2.0484 6.75433 0.151014 -1.02447 -1.60374 -0.900479 0.231048 -2.24618 4.28568
965 1 Ar 1.67283 6.73737 1.21204 0.738937 -2.43231 -0.194458 1.57754 5.75955 -9.32377
157 1 Ar 2.6761 6.12865 0.826325 0.690634 -0.147692 0.76514 -0.213052 -4.98412 -24.3455
211 1 Ar 4.01796 6.35181 1.00666 -0.345704 1.03708 -0.628823 -21.3413 22.5313 2.10725
243 1 Ar 3.13662 6.99426 0.212495 -1.53836 0.753166 -0.188474 -0.962745 3.1631 0.9524
606 1 Ar 3.92941 7.72156 1.42476 0.856382 1.19369 -0.172216 -18.8902 -11.6021 -5.72591
653 1 Ar 5.02596 6.65853 0.84029 0.172304 1.31175 -0.133672 4.71187 4.20132 -8.41671
569 1 Ar 4.97404 7.39234 1.68605 -0.712598 0.634191 0.252058 19.4301 10.2427 -3.74082
3375 1 Ar 6.54466 6.25729 1.14493 -0.240174 0.0866158 -0.410236 0.244253 25.1751 -7.50109
3779 1 Ar 6.88669 7.10418 0.481046 1.14328 1.14661 -0.0998897 10.2217 0.159568 -0.554781
1019 1 Ar 7.67049 6.83174 1.15995 0.672851 1.32546 0.530654 2.3577 11.8074 8.10553
3859 1 Ar 7.83195 7.605 0.14755 -0.609131 -0.0920129 -1.06374 -40.4598 22.3076 -14.4298
215 1 Ar 7.83856 6.57387 0.0960282 -0.562203 -0.896663 1.3337 -6.01852 -7.35556 14.8884
183 1 Ar 8.56048 7.22538 0.680087 1.07391 -0.155793 -0.38213 28.181 -8.47414 13.9327
544 1 Ar 9.39671 6.16425 0.890964 -0.774539 2.21286 0.956372 18.1287 -1.9468 2.36503
3836 1 Ar 10.8251 7.05508 0.734832 1.63594 0.435196 0.252832 -4.39597 1.58841 -8.73411
3384 1 Ar 10.0987 6.65562 0.0435667 -1.04052 0.665676 0.199526 -22.8145 -0.0739496 3.37232
950 1 Ar 11.5228 6.05716 0.658962 -0.390507 0.804965 -0.508326 24.1558 12.8413 -7.96849
713 1 Ar 12.2966 6.95682 0.567519 0.262686 0.362789 -0.341571 1.81174 5.05731 5.96472
993 1 Ar 13.5227 6.71143 0.531858 0.66674 -1.32733 -0.945272 -16.496 1.43959 -10.5898
193 1 Ar 14.3475 7.27721 0.567209 -0.740339 1.01254 -0.0416068 16.7762 12.1362 -10.944
960 1 Ar 15.1304 7.33616 1.26952 0.362371 -0.419685 -0.0776956 -17.0083 1.96462 11.0844
557 1 Ar 14.0331 6.92314 1.57735 -0.375975 0.0970415 -1.0743 8.26381 -6.38485 7.99755
158 1 Ar 16.5536 7.64241 1.54967 -0.647823 -1.3546 -0.122639 5.43685 6.3184 -5.29647
605 1 Ar 16.6695 6.35655 0.789118 -0.311343 2.52053 -0.214933 -12.5206 4.73381 -5.33752
3790 1 Ar 16.0022 7.20322 0.764133 0.384542 0.505419 -0.50809 9.85919 -1.26671 -18.079
597 1 Ar 15.9149 6.79905 1.79332 -0.250189 0.584563 0.143714 0.588268 -14.8552 -25.2481
554 1 Ar 15.8303 6.45138 16.6517 1.24634 0.721834 -0.440141 -1.46254 -1.09219 2.3182
922 1 Ar 0.941349 7.7993 0.991127 -0.0999619 0.631746 -0.299927 6.51416 -11.5745 -10.0622
201 1 Ar 1.86452 7.97308 1.67409 1.05211 -1.20558 0.0356255 -3.68143 1.8808 -0.72657
3808 1 Ar 16.612 8.85998 1.19536 1.68257 1.349 -1.27605 0.560649 -2.81203 12.4351
608 1 Ar 0.915918 8.78639 1.19413 -0.844839 -0.911573 -0.433066 12.6164 12.7736 9.35485
167 1 Ar 2.21445 7.86599 0.487854 0.984819 1.14721 0.293169 1.28692 -5.2576 0.506628
717 1 Ar 2.50344 8.8598 1.01442 0.17106 -0.288351 -0.494692 -12.836 15.2715 10.5598
207 1 Ar 2.89121 8.3673 2.01385 -0.785147 0.786695 0.450364 -25.8024 -33.9455 10.5411
652 1 Ar 4.27232 8.51028 0.561265 -0.589122 0.346238 0.209855 -1.61968 6.45656 8.92613
204 1 Ar 3.57899 8.83056 1.49429 -0.141124 0.638416 -0.836428 20.0493 5.25835 -22.2383
607 1 Ar 3.21325 8.268 0.632405 -0.799524 -0.64439 -1.52157 12.491 -23.7744 -3.29745
3016 1 Ar 5.14423 7.82598 0.582411 0.1306 -0.268855 -1.45695 10.1349 -16.5314 22.3813
297 1 Ar 5.45296 8.88689 0.667898 1.52568 0.0922763 -0.557161 -2.22294 2.79859 -0.0798069
220 1 Ar 6.02051 7.288 1.0968 -0.66656 1.45813 -0.218667 -28.6815 -26.955 -1.52778
1014 1 Ar 4.63074 8.43589 1.52828 0.911105 0.458043 0.449274 15.3738 18.0612 11.224
628 1 Ar 7.10978 8.46403 16.617 0.0814219 -0.461834 -0.334283 -18.1716 6.63402 14.2057
581 1 Ar 6.8125 7.90882 1.3221 -0.0718841 -0.664772 -1.50894 18.9213 0.991088 24.6848
660 1 Ar 6.30592 8.00567 0.457866 -1.44897 -1.46994 1.60568 -11.4009 27.9054 -10.4912
141 1 Ar 8.96801 7.75225 1.82625 -1.19714 0.682447 0.915306 5.60807 22.4168 -3.94419
224 1 Ar 8.32099 8.54128 0.205368 -0.453044 -0.180446 -1.12657 -29.4954 6.60978 -18.1407
1018 1 Ar 7.42679 8.58937 0.834548 0.859507 0.0455806 -0.981086 -18.1336 32.6474 -15.6262
623 1 Ar 9.61786 7.22305 0.974822 -0.908096 -0.649381 -0.811862 11.456 -0.204109 9.32547
3739 1 Ar 9.10334 8.4929 0.781529 1.17837 -0.160932 1.08341 29.2287 4.04387 33.1925
3821 1 Ar 9.4733 7.78508 0.11873 1.37331 0.61659 0.107832 -6.58006 15.4755 31.955
586 1 Ar 10.8718 9.04176 1.16327 -1.58616 -0.466873 0.90552 -15.6015 -17.189 -3.56772
186 1 Ar 10.3418 8.06369 0.74757 0.486756 -0.846045 1.29015 -26.1744 9.83823 -34.9225
152 1 Ar 11.235 8.75705 0.179231 0.362268 0.247096 -0.75873 -11.253 -15.1697 5.7756
197 1 Ar 13.6395 8.70004 0.417908 -0.858686 -1.04882 1.55217 -0.854733 -22.4974 -2.1248
231 1 Ar 12.3832 7.70287 16.1286 0.234762 1.30456 -2.38621 -5.74009 -7.05966 -2.29805
195 1 Ar 12.1399 9.23002 0.275357 0.921323 0.80151 -0.104541 16.9957 15.5855 5.06229
353 1 Ar 12.9857 8.70215 1.17513 -1.86035 0.417712 0.961564 -16.1717 -1.46577 17.0401
1354 1 Ar 12.3554 8.19854 0.301693 -1.11163 -0.760907 -0.572581 -2.42066 -5.69264 10.4587
3798 1 Ar 14.7385 8.33803 0.85624 -0.94967 -1.04001 0.0915725 26.8824 -51.7692 -14.8331
3439 1 Ar 14.3558 9.18176 1.07609 0.0815203 -0.272481 -1.04007 -23.2314 39.4181 16.1489
594 1 Ar 13.8382 7.9011 1.23457 0.347684 -0.897214 0.0476808 -12.5871 11.2888 6.59567
603 1 Ar 16.0386 8.32856 0.55082 -1.17389 0.277414 0.685983 -7.76575 -12.4532 -8.01255
1117 1 Ar 15.3527 9.23125 0.746245 0.787616 -0.00258063 1.71303 7.30017 2.18118 -6.91504
279 1 Ar 1.80459 9.68181 16.5477 -0.146448 1.347 -0.359399 0.0787933 8.1877 10.9989
247 1 Ar 2.30592 10.113 0.766661 -0.151185 1.20617 -0.704608 -1.31838 5.9651 -7.1207
649 1 Ar 3.1149 10.1367 16.5771 -0.766503 0.673797 1.18332 -2.29406 -4.09147 7.80944
638 1 Ar 3.7572 9.92128 2.02004 0.919508 1.22483 -0.298619 -3.72079 -4.78128 2.10999
217 1 Ar 3.25195 9.89253 1.09389 -0.228821 0.505872 -0.20659 12.4527 3.90277 -3.34369
647 1 Ar 3.49131 9.23434 0.26673 -0.0601922 0.0944312 -1.06104 -2.32432 7.39276 18.9088
1414 1 Ar 4.32388 9.46649 1.20727 -1.18417 0.293555 -0.0761088 15.3536 11.9799 -10.2309
175 1 Ar 5.56869 9.65842 1.57519 -0.40562 0.825875 0.317156 -44.371 18.083 -9.53149
1051 1 Ar 4.31732 10.6623 1.18557 1.16646 -1.67294 1.06164 2.43631 -2.04352 1.50728
655 1 Ar 5.13806 10.1183 0.539559 -0.227967 -1.44725 -0.782246 5.30068 -5.1296 11.952
3904 1 Ar 6.48514 9.35353 0.504118 -0.632329 2.39595 -0.5733 5.81377 -14.0803 1.24925
1059 1 Ar 5.77549 10.3675 2.33952 -0.901909 -1.11583 0.221015 -2.98338 -9.15586 -7.03757
304 1 Ar 7.44233 9.57105 1.43807 -0.597308 -0.591677 1.85322 3.41149 -10.9972 4.27594
665 1 Ar 7.92013 9.72655 0.353618 -1.23149 -0.268602 -0.471858 -9.66197 -18.3579 18.8742
3784 1 Ar 8.57575 9.72556 1.09135 1.01077 0.738189 -1.62146 14.6747 -8.85671 22.9783
3867 1 Ar 8.4661 10.6483 0.283696 0.602414 -0.867659 0.494662 10.8284 5.84745 11.7128
260 1 Ar 7.90741 10.5155 1.22986 0.51472 0.404284 1.09126 -3.87062 12.1775 0.404375
253 1 Ar 9.60388 9.78587 1.17675 -1.15284 0.583845 -0.0680124 9.85623 4.45129 2.49091
3787 1 Ar 10.6521 10.0785 1.02378 -0.852224 -1.97358 0.422441 3.82126 4.01609 10.6224
669 1 Ar 11.6916 9.65397 1.21604 -0.34458 0.109126 -1.29244 8.19025 8.90671 -8.42799
309 1 Ar 12.592 10.3924 1.59942 0.0246543 0.820493 -0.449263 -2.27479 2.13153 0.795737
636 1 Ar 11.9778 9.03589 1.98098 -0.344646 0.194714 -0.957 5.00554 -3.28239 -6.10759
271 1 Ar 12.7946 10.2827 0.500356 -0.361907 -0.677961 0.449075 -18.3959 10.9695 5.27501
996 1 Ar 13.6251 9.93347 1.02022 -0.537936 0.561997 0.0338011 -0.742977 1.31606 7.15134
194 1 Ar 14.565 10.0418 0.485424 1.33611 0.389659 0.397898 5.28983 -3.38732 0.891593
671 1 Ar 14.8604 10.8017 16.6307 -0.432343 -1.31002 -0.414494 -8.37821 -0.40472 -10.3251
1073 1 Ar 14.416 10.8708 1.18983 2.27263 0.586809 0.762431 -16.789 -8.97894 16.7769
273 1 Ar 13.7188 10.503 0.0517172 -0.184203 1.67785 0.358616 -0.969251 9.72791 6.14483
199 1 Ar 15.9109 9.86165 1.41133 0.146994 0.463117 0.681178 12.5491 -13.0504 -1.30375
315 1 Ar 15.6083 10.3336 0.444215 -0.0201782 0.164252 -0.0753754 2.97851 -0.653051 7.62976
634 1 Ar 16.3897 9.63324 0.389031 0.869618 0.464449 -0.298661 3.10035 -8.83383 -3.99359
241 1 Ar 0.652461 11.2916 0.460653 0.397981 1.66438 -0.231757 2.04715 -2.61688 36.3909
685 1 Ar 0.901712 12.0295 1.17725 1.54761 -0.39578 -0.860526 6.27032 -4.05463 4.641
208 1 Ar 0.212916 10.4729 16.7869 -0.301023 -0.586128 1.23844 -3.57565 -2.68172 -8.46066
212 1 Ar 1.35147 10.7449 16.7461 0.474053 -0.370522 0.334139 6.09943 -5.47128 -3.03145
648 1 Ar 2.3952 10.8984 -0.00337686 -0.147743 -0.125925 -0.361785 1.42372 -27.0029 20.339
245 1 Ar 1.76127 11.7191 0.338517 -0.155516 0.308496 0.517875 -1.58017 1.43932 5.50789
1090 1 Ar 2.5108 11.2168 1.14374 1.41285 -0.334494 0.896799 -12.2385 5.56988 -5.74844
689 1 Ar 3.35445 10.968 0.510266 1.56361 -1.44197 -1.41423 -29.5199 2.75663 1.78395
1056 1 Ar 2.93503 12.1224 1.98599 -0.337423 1.55283 -0.707055 11.5057 -7.131 -27.1605
1089 1 Ar 4.95728 11.0533 0.0921424 0.528482 0.62913 -0.586518 -7.57219 3.10018 0.772594
616 1 Ar 4.49097 11.5465 1.88695 -1.07182 0.411892 -0.502038 33.6945 -58.702 7.7433
691 1 Ar 5.31089 11.5096 0.947438 -0.637853 -0.0615568 0.574039 -2.31071 2.8255 12.1983
1417 1 Ar 5.8323 10.6424 1.15183 0.78232 0.0982509 1.22487 4.52067 -1.26548 7.85303
250 1 Ar 4.90806 12.0296 16.443 -1.75623 -1.56127 -0.872788 23.0134 -14.455 -11.0632
3895 1 Ar 6.56352 11.3296 0.508037 -0.701714 0.0754166 -1.13902 -3.3261 -0.0414973 2.49833
259 1 Ar 6.82463 10.3231 1.01759 -1.11375 -0.569034 -0.571961 4.05042 2.5473 -0.588442
1455 1 Ar 6.59789 11.5261 1.59743 -1.51161 -1.36485 0.205765 5.1767 3.58278 -2.36402
1422 1 Ar 6.80957 10.6669 2.25218 0.172539 -2.00235 -0.143281 6.44022 3.35299 -3.33848
232 1 Ar 8.46972 11.5118 1.2157 -1.08391 0.16329 0.270571 8.83084 0.27893 -6.94381
302 1 Ar 7.54135 12.0357 1.21248 0.0771834 2.1022 -0.661415 -16.1768 -3.67405 10.1782
300 1 Ar 7.78086 11.5344 0.169297 -1.38842 -0.585118 0.306114 25.9496 -2.28639 17.7425
668 1 Ar 9.64722 10.7797 0.403539 0.2159 -1.70249 0.497939 -20.6702 23.8703 12.0656
626 1 Ar 10.8992 11.1448 1.13339 0.0529812 0.167927 -0.2567 -14.3026 15.8653 -11.2797
3832 1 Ar 10.5389 11.6108 0.0196601 -0.869357 0.260154 -0.636928 6.38477 -26.679 19.415
1461 1 Ar 9.88869 11.6869 1.03906 -0.0693975 0.128079 -0.456739 4.92909 -7.72743 5.29225
3866 1 Ar 11.5723 11.7838 0.512295 -1.27752 1.30189 0.620011 -19.9535 9.87705 5.86925
1070 1 Ar 12.8415 11.7956 1.83619 -0.875875 0.258746 -0.251917 -7.95711 -5.66825 -7.03187
270 1 Ar 13.4056 11.0903 1.08854 1.29235 -0.133193 0.51074 15.5507 -5.29519 4.16536
351 1 Ar 12.4901 11.3618 0.828953 -0.548781 0.985983 1.11867 13.5984 -17.879 -27.0849
3876 1 Ar 15.3072 11.8202 16.5447 1.50569 0.209053 0.332711 -2.08555 1.64606 -3.70495
360 1 Ar 14.2082 11.5807 0.306261 -0.385174 1.01718 -0.23583 -4.73224 -0.544986 2.47241
3884 1 Ar 15.1631 11.2675 0.68455 -0.535311 0.798587 -0.788387 33.9418 23.9167 8.53597
275 1 Ar 16.2208 11.1926 0.121106 0.983373 1.29573 1.30939 -8.39787 -3.73693 -15.7017
321 1 Ar 16.556 11.9175 0.764711 -1.18519 0.988712 -0.178301 8.42993 6.7704 13.2461
726 1 Ar 16.3814 12.6108 16.7568 0.779857 -0.331695 -0.414969 0.480434 0.734993 -7.1376
687 1 Ar 16.3104 10.8642 1.16239 -0.361725 0.258644 -0.47755 3.89282 -0.880564 -11.4886
288 1 Ar 0.821424 12.3248 0.148944 -0.236252 0.566637 0.475362 -11.4517 13.1104 0.616022
368 1 Ar 0.239785 13.4208 0.397539 -0.924435 -0.287812 -0.474066 4.57073 -2.95888 4.6152
692 1 Ar 1.55348 12.8456 0.55646 -0.710888 0.296488 0.352623 26.3975 12.512 -6.21269
686 1 Ar 2.96017 12.1138 0.7754 -0.610325 0.0327771 -0.108014 2.21906 1.37322 3.06202
361 1 Ar 2.54055 13.5069 16.3827 0.913243 0.779242 -0.0488713 7.61154 18.8424 35.9312
725 1 Ar 1.80807 13.5135 1.49043 0.662577 -0.74126 0.393506 17.2287 4.03227 -5.87722
3925 1 Ar 3.29648 13.8735 0.857761 -1.39187 0.644523 1.73931 16.8855 0.861984 -4.3244
762 1 Ar 3.7788 12.8794 0.829686 0.458465 -0.563829 -1.29558 -9.41357 5.64723 -1.39561
690 1 Ar 3.87912 11.6437 1.05663 1.39947 0.68632 -1.42999 7.98333 16.8849 -6.27906
650 1 Ar 5.64586 12.3709 0.440223 -0.484498 0.528186 0.594452 -16.3399 -4.34222 32.9601
1456 1 Ar 4.35351 12.8299 16.649 -1.47498 -0.343424 1.00475 -18.4383 23.6419 -2.26973
332 1 Ar 4.92075 13.2943 0.649985 -0.76997 1.89899 0.922555 -4.51093 8.89751 -3.63307
730 1 Ar 4.60741 12.2821 0.695854 1.46302 -0.110595 1.58358 11.2135 -8.98141 3.19471
1094 1 Ar 6.12294 13.3232 0.351812 -0.367716 0.445244 -1.42633 12.0736 15.5104 -0.857849
3900 1 Ar 6.47124 12.6156 1.07579 -1.54798 -0.120448 1.33156 9.20095 -10.5955 4.77402
339 1 Ar 6.88235 13.6099 1.03338 -1.22992 0.222363 0.919167 -25.2394 6.43158 -7.13662
295 1 Ar 8.1846 12.4655 0.536436 0.416935 1.42697 0.591584 38.5745 -32.8976 -18.0519
296 1 Ar 7.65453 13.2776 0.456039 0.0558784 -1.7571 0.592429 6.67937 29.7785 14.5796
305 1 Ar 8.60668 13.6992 0.680002 -0.285409 -1.44923 -0.613121 4.38904 2.9897 0.702551
1538 1 Ar 8.05772 13.0096 1.38905 0.824695 0.0949521 0.218853 3.92335 6.5628 16.8369
662 1 Ar 10.3361 12.6377 0.646693 0.105596 -1.37214 0.00196363 2.71559 0.897677 -4.53594
707 1 Ar 11.1492 12.272 1.57374 -1.16934 -1.11553 0.272683 -8.76694 -11.1396 -23.0049
747 1 Ar 9.37874 13.5506 1.44577 -0.300678 0.434856 1.62943 15.0132 18.0608 -20.4466
3941 1 Ar 10.8549 12.4985 16.4385 0.139432 0.683649 0.626131 -9.07824 10.929 9.17667
3512 1 Ar 11.8608 11.4537 1.59817 -0.457846 0.741745 -0.116076 -13.6197 2.41274 14.0592
749 1 Ar 11.7275 13.286 1.44045 -1.94688 0.161649 -1.66751 1.13377 1.03395 -9.29522
346 1 Ar 11.0886 14.6045 0.438043 -0.103765 -0.336926 0.551217 -0.818375 9.7694 -23.9911
385 1 Ar 11.6489 13.0161 0.222397 -0.598693 0.415068 0.0625231 5.22833 2.71746 4.93427
354 1 Ar 13.3565 12.5958 0.0606328 0.820783 -0.214631 -0.902729 3.57256 3.39151 0.910704
387 1 Ar 12.3777 12.3256 0.991062 0.920329 1.71061 0.0453079 -7.31929 33.8204 4.70895
3912 1 Ar 13.7807 13.4548 0.6745 0.651466 0.704223 0.422288 -12.9035 -1.1191 -0.664544
3591 1 Ar 13.4769 12.3016 1.13203 0.927902 -0.288873 -0.841154 6.05318 0.604807 -4.46336
3959 1 Ar 14.4645 12.6586 0.297852 0.0150121 1.02799 -0.0582924 -2.57477 3.55711 5.58987
670 1 Ar 14.5853 12.2956 1.2805 -0.0661743 -1.19066 -0.127268 -1.783 -1.38855 5.28682
356 1 Ar 14.064 13.2098 1.72604 -1.42451 0.946008 0.942454 5.61227 4.02936 -6.86232
3924 1 Ar 14.7773 13.6251 0.92513 -0.390033 0.369723 0.99945 12.8039 -15.0229 -4.90276
318 1 Ar 15.5056 12.3695 0.687107 0.874344 -0.268175 -0.395472 2.91785 2.31286 1.43603
282 1 Ar 1.87603 14.6351 16.5371 0.554626 1.30541 -0.0860483 -39.9073 4.56373 12.3356
758 1 Ar 0.367258 14.4551 0.861416 0.509994 0.690908 -0.346257 -15.8934 33.452 -35.7708
1171 1 Ar 1.25626 14.0013 0.850758 1.30177 0.587537 -0.351972 -2.8833 1.04608 -26.7883
365 1 Ar 1.47901 15.0203 0.824275 -0.240819 -1.36955 -0.568735 -8.98603 -9.80464 -14.1787
3 1 Ar 2.32889 14.1996 0.632658 -0.958218 0.376637 -1.14095 -13.3981 -5.04725 10.3089
17 1 Ar 3.76474 14.5521 1.71242 0.221904 0.322749 -1.08973 -6.61665 -16.0411 31.7709
376 1 Ar 4.30795 14.2773 0.350924 -0.559714 -0.232662 -1.27472 4.41845 -4.93897 -0.527656
736 1 Ar 5.33469 14.5474 0.10226 -0.685839 1.17616 0.849431 -21.663 24.7486 36.1075
3580 1 Ar 5.89135 14.5303 1.08103 1.07877 -0.343134 -1.41304 -11.1492 -5.71629 2.47281
694 1 Ar 6.41292 14.604 0.207812 0.308072 -0.782922 0.780018 26.7732 -22.7339 -14.2267
3940 1 Ar 7.19837 14.9941 1.05958 -0.0596041 -1.00355 0.328449 -16.4029 5.13422 -7.47267
3981 1 Ar 7.84226 14.4271 0.337175 -0.183457 1.24183 0.0371861 -0.634571 -9.00996 -7.98168
337 1 Ar 8.20881 14.9366 1.13316 -1.74247 -0.532654 0.177851 32.6932 -11.4888 1.57973
698 1 Ar 7.67034 14.0481 1.46335 0.561322 0.551212 -0.0632679 1.11238 4.94473 -1.53994
308 1 Ar 9.01565 14.866 0.35205 -0.899301 0.588696 1.81995 5.19384 0.669162 16.8029
746 1 Ar 10.8079 13.5994 0.275957 -0.705438 0.679461 -0.406831 -13.1067 1.43902 -3.13049
381 1 Ar 11.7917 15.0782 16.3009 -0.0510022 0.877957 -0.969178 -9.66683 28.5233 -18.5333
352 1 Ar 11.3713 14.6128 1.39108 1.39104 0.465032 0.527262 9.69106 3.27668 28.4055
350 1 Ar 12.3952 14.3413 1.01708 -0.0170298 -0.934786 -0.0748089 -13.8822 10.2217 -12.6637
3950 1 Ar 13.3759 14.2464 1.40087 -0.784345 -0.495713 -0.141132 -7.52174 -30.6383 -5.35114
39 1 Ar 14.7645 14.5505 1.35799 0.0281689 -0.288391 0.382926 -6.3361 3.10972 -17.8431
681 1 Ar 13.8338 15.0818 1.08521 -1.09335 0.473993 0.422919 44.6191 5.86898 -33.5365
317 1 Ar 15.9642 13.6656 1.05773 -0.670127 -0.490702 -0.313977 0.768195 -7.17337 -12.3084
357 1 Ar 15.1633 14.5349 0.271392 0.589372 -0.56515 -0.369484 1.60401 -2.98933 0.342506
1078 1 Ar 15.7076 14.3185 1.82799 0.597512 -0.755777 0.416994 25.9408 -18.5972 -8.1144
724 1 Ar 16.0589 14.9789 0.782371 -0.817487 -0.00364752 0.46671 -8.19475 -3.38611 -9.56682
3607 1 Ar 0.0281719 15.0965 0.00511295 -0.108728 0.376927 -0.16851 -20.2395 9.362 -6.69295
45 1 Ar 0.849559 16.5605 1.20147 -1.63343 0.408444 -0.0715309 -1.17695 -9.56839 2.31056
761 1 Ar 3.11722 16.1079 0.763489 -0.313603 1.09404 -0.493672 -4.53188 3.57702 8.9011
49 1 Ar 2.15456 15.687 1.16873 1.67004 0.697422 0.787364 -1.82559 5.56901 -0.733899
364 1 Ar 2.41898 15.7016 16.2826 0.454433 -0.00601294 0.336544 -0.612466 -7.41024 1.3145
3929 1 Ar 2.65765 0.130444 16.7221 -0.334094 -0.210125 -0.0143672 1.80716 -3.62884 0.338153
459 1 Ar 3.70709 14.9993 0.833542 -0.221393 0.503276 -1.71808 -6.76068 21.5013 -26.423
374 1 Ar 4.22294 16.0869 0.723514 -0.468822 0.0207605 -0.0400558 -4.71822 -9.20197 2.76138
3971 1 Ar 4.64137 15.3802 16.7429 0.574397 0.12514 0.410914 -0.481934 2.4852 0.387196
3977 1 Ar 5.90263 0.0402198 1.39873 -0.00174114 1.06904 -0.0861915 -2.52502 -3.56727 10.5591
380 1 Ar 5.31252 16.238 0.658911 1.17298 1.02725 -1.08569 -18.6784 -0.476037 33.0096
740 1 Ar 6.28611 16.5676 0.462661 -0.65201 0.966565 1.55888 -3.12021 12.3708 -9.24038
336 1 Ar 5.08468 15.2202 0.949527 -1.20215 -1.03177 -0.570287 -5.51719 8.32235 -0.356975
3939 1 Ar 6.02534 15.5178 0.386384 0.00664041 0.533822 0.0217216 2.18929 11.1322 23.5029
460 1 Ar 7.68993 16.7092 0.821049 -0.626751 0.316168 0.0827568 10.5683 0.993005 11.127
733 1 Ar 7.06619 15.9397 0.449784 0.157268 -0.229794 -0.120637 3.26954 7.68636 26.4718