ITEM: TIMESTEP
8500
ITEM: NUMBER OF ATOMS
4000
ITEM: BOX BOUNDS pp pp pp
0.0000000000000000e+00 1.6795961913825074e+01
0.0000000000000000e+00 1.6795961913825074e+01
0.0000000000000000e+00 1.6795961913825074e+01
ITEM: ATOMS id type element x y z vx vy vz fx fy fz
446 1 Ar 1.2885 1.63187 0.536257 1.08568 1.03548 -0.861412 -2.65153 4.06971 3.5124
3966 1 Ar 16.5712 0.507348 0.990964 1.06267 0.520948 0.257176 29.7841 19.4825 -14.1388
798 1 Ar 0.960043 0.932305 1.3026 -0.924861 1.32876 -1.19226 5.3111 -3.52334 2.5313
91 1 Ar 2.84393 0.410401 1.10633 -0.0475132 1.11315 -0.423709 21.0607 6.56128 0.324215
12 1 Ar 1.88647 0.162328 1.15018 -0.132142 0.818096 1.60537 -30.9443 -5.80997 1.08856
46 1 Ar 2.22074 1.07283 0.485321 -1.30377 0.819736 1.38194 -12.1916 8.95869 12.9839
412 1 Ar 1.23451 0.513685 0.0561986 -0.0779417 -1.38558 -0.90732 -5.43158 -9.16111 24.2608
489 1 Ar 3.15873 1.4039 0.799981 -0.0638436 0.400461 -0.333916 -4.45083 3.73729 -3.47037
1133 1 Ar 4.60935 0.637569 2.00707 -1.14714 0.753888 1.37958 14.6878 -8.38159 -7.01438
457 1 Ar 5.37152 0.880287 1.01794 -0.130926 1.00822 0.698949 4.4888 15.5957 16.7834
500 1 Ar 4.64626 1.45639 0.396227 -1.77364 -0.535592 0.386695 11.5067 1.7098 9.15647
334 1 Ar 7.68343 1.10714 1.42672 -0.162731 0.0646939 1.08143 6.29475 -1.0351 -11.8065
780 1 Ar 7.22808 1.21666 0.398797 0.390891 -2.23979 1.32364 7.42193 1.84029 0.338597
15 1 Ar 6.23396 1.08514 0.051132 -0.442989 0.640752 -0.470804 28.2333 -1.2515 16.8554
383 1 Ar 8.43236 0.773553 0.498599 -0.329892 -0.848407 -2.55429 -4.46475 8.2218 11.7792
384 1 Ar 9.85389 16.7136 16.5841 -0.733771 1.28054 -0.626912 -43.6913 -5.74562 -2.53665
3944 1 Ar 9.62374 0.759556 1.09784 0.724039 0.309548 0.59137 -4.30715 -2.0322 -6.02452
3627 1 Ar 9.28011 1.25187 0.0676085 -0.518708 -0.409648 -0.251308 -1.51872 8.30367 -1.22068
505 1 Ar 10.2238 0.789299 0.227158 0.89042 -0.649641 -0.0172987 -11.3738 -15.7102 -8.12664
379 1 Ar 9.56102 2.0255 0.897885 0.844557 -0.283701 -0.737606 5.12785 -36.7115 -8.10613
474 1 Ar 11.0738 0.557864 1.09768 -0.412249 1.63717 -1.04731 -2.70079 -14.6796 -10.814
21 1 Ar 10.8195 1.47723 0.616369 -1.19444 0.875339 1.23879 -21.5188 22.4595 -9.04619
71 1 Ar 13.15 1.9084 0.027089 0.26837 -0.139482 -0.764859 13.342 9.17123 -2.18383
109 1 Ar 14.1358 0.730072 1.5716 -1.15401 -0.114167 -0.731 -0.0596528 4.45837 -11.545
388 1 Ar 12.2715 0.592711 1.29488 0.12552 1.66685 0.679216 -1.0305 -8.31267 -3.60512
3991 1 Ar 12.5346 1.17344 0.329523 -0.199935 -0.591129 -0.727572 -6.73443 -19.4463 4.96201
429 1 Ar 13.4196 0.271001 0.827736 -0.955762 0.368372 0.182791 -8.72119 2.33406 3.93356
79 1 Ar 14.9958 0.675397 0.711232 1.08837 -1.03701 -0.507158 -8.92752 3.6681 17.6473
33 1 Ar 14.2743 0.0705316 0.249097 0.754536 -1.06777 0.274888 -3.72114 -1.77097 -12.2495
795 1 Ar 14.616 16.5327 1.1831 -2.36494 0.770027 0.263975 -12.825 -7.97387 -5.48719
438 1 Ar 15.7908 1.27391 1.24678 0.378285 0.797467 -0.283635 -2.03075 -2.96383 0.949004
764 1 Ar 15.7829 0.043303 1.31945 -0.47736 0.935993 -0.853973 -6.95183 -13.1094 -9.36556
439 1 Ar 0.0399353 1.48926 1.47722 0.231379 -1.09685 0.568252 4.27621 -1.5219 0.476981
441 1 Ar 0.457766 2.36979 0.842642 0.889518 -0.401887 -0.306287 7.47952 -8.05581 0.239051
84 1 Ar 1.34027 2.8944 0.346374 0.550563 -0.0888146 -0.638784 -10.2109 -5.64848 -1.58446
442 1 Ar 2.20398 2.02007 0.113146 0.919459 -0.0111157 0.446185 8.90719 8.52879 13.9558
487 1 Ar 2.1195 1.90804 1.24081 0.18868 0.65598 1.27142 0.744446 4.86495 -0.31677
1170 1 Ar 3.76432 1.88663 0.0851998 0.272594 0.433525 -1.42431 -13.2442 4.08872 -3.06275
811 1 Ar 3.75621 0.841136 1.44188 1.24046 -1.0255 -0.687372 16.2737 3.91212 -8.1899
413 1 Ar 4.01329 1.95172 1.22796 -1.00306 0.0428914 -0.262146 19.0983 -8.93735 -14.3179
1134 1 Ar 3.05796 2.49642 0.866253 -0.501976 0.255012 0.956231 -1.97798 23.1439 -37.448
375 1 Ar 5.1225 2.14851 1.24985 -1.34575 1.3958 -0.427697 1.79375 -6.50011 -10.198
95 1 Ar 6.47097 1.65093 1.17467 -0.0817215 0.0182269 0.807163 -0.891516 6.81547 5.2739
64 1 Ar 7.53412 2.08781 0.967643 0.355018 -0.0469478 0.408326 9.05982 -12.9122 2.75264
133 1 Ar 6.34647 2.69707 1.02817 0.409124 1.02449 -0.315743 -6.80826 -3.61464 -8.29451
898 1 Ar 6.87131 3.53212 1.33677 0.452155 0.555374 -0.895649 6.57181 10.0281 6.58332
58 1 Ar 8.57693 1.68517 1.08183 -0.728009 0.822415 0.420216 0.0705561 -8.63117 -20.5378
432 1 Ar 10.3801 2.45002 0.329606 0.211419 -1.72477 -0.54325 -32.837 11.2029 8.33602
97 1 Ar 9.33474 2.66058 0.0589519 0.0316308 -0.0235825 -0.844174 -1.85682 -0.265077 0.580112
25 1 Ar 11.2903 2.27133 0.0344847 -0.373341 -0.502611 -0.818127 30.5935 13.3726 -15.9274
912 1 Ar 11.2357 2.34533 1.0622 -1.26692 1.18782 -1.0358 -23.5226 23.6961 22.4273
73 1 Ar 11.8802 3.20328 1.51056 -0.749479 0.18729 0.844367 -14.6883 -4.30384 2.50463
469 1 Ar 12.9052 1.44731 1.58552 -0.213659 0.836382 0.226078 6.0206 -6.24176 -3.84507
513 1 Ar 13.3843 2.32101 1.12488 -1.56261 -0.140134 -0.760812 -7.35697 1.57835 -18.1114
31 1 Ar 12.1766 2.39996 0.694519 0.830887 -0.47904 -0.841308 23.1491 2.72775 -7.86197
36 1 Ar 15.3821 2.05208 0.607274 0.0514853 -0.398553 0.270691 -3.78956 -0.055296 -3.76315
3674 1 Ar 14.3344 3.61507 16.6404 -0.48712 0.328413 -0.554149 17.9372 12.361 25.3681
3716 1 Ar 14.3473 2.86461 0.963711 0.493424 0.49305 -0.513671 -4.47294 -2.01966 -5.53471
35 1 Ar 14.0118 1.48117 0.717912 -0.56862 0.406047 -0.539375 5.84569 9.18706 15.7932
434 1 Ar 16.5549 1.41947 0.351901 -1.06255 -1.03138 -0.444472 10.53 11.2656 3.61473
42 1 Ar 16.3122 2.5943 0.457798 -1.41631 1.00796 -0.0857025 -30.7123 9.47119 20.6803
115 1 Ar 15.277 3.02742 1.33303 -0.204995 1.15136 0.400957 28.7916 23.8367 -4.6251
523 1 Ar 0.269398 3.40261 0.351678 1.08507 0.638227 -0.551401 14.7835 4.44547 41.2497
124 1 Ar 0.323972 4.33867 1.71678 1.0289 -0.618253 0.63681 6.43428 -8.7577 -6.06411
3724 1 Ar 16.5813 4.59039 0.49092 0.15004 -0.446141 1.10285 10.8925 -2.90018 6.61707
48 1 Ar 1.23476 3.88321 0.775846 -1.3732 1.10613 0.0306019 0.327726 -40.914 -5.66269
452 1 Ar 2.04183 3.23166 1.19108 -0.204883 0.0727669 -0.554416 -4.48133 -2.70924 3.5822
92 1 Ar 2.94972 3.88988 0.389467 -0.572464 0.101492 0.143428 -2.54243 21.6744 9.68013
530 1 Ar 4.43601 2.92442 1.50714 0.0549085 -0.298517 -0.636351 -17.4609 3.10539 12.5396
893 1 Ar 3.79573 3.98275 1.19321 0.258953 1.06057 -0.281723 -2.27175 -3.72031 9.79902
3692 1 Ar 5.98399 4.77571 0.409944 0.254114 0.127685 1.57892 -10.9202 -12.2966 -13.592
3731 1 Ar 4.79192 3.70657 0.864446 -0.315587 -1.83803 0.793555 3.38239 2.15879 12.3759
3653 1 Ar 5.42993 3.11238 1.57119 -0.865164 0.106488 -0.226984 8.60814 15.5358 -9.80844
894 1 Ar 6.49175 2.94248 16.659 0.233973 0.744854 -0.756042 30.7035 -2.98172 23.859
3657 1 Ar 7.10942 3.81812 -0.0064447 0.0543742 -0.0538898 -0.431407 -1.65085 3.95361 -4.36389
90 1 Ar 6.9378 4.53775 0.819931 -0.0284531 -0.0801724 0.880336 4.93569 -12.9583 -13.7585
136 1 Ar 6.08883 3.66273 0.601454 -0.455815 -1.83978 -1.76181 4.13839 6.38803 6.1519
20 1 Ar 7.53557 3.38142 15.8384 0.386611 0.0352333 -0.440058 -19.2808 -22.3274 -5.53562
3695 1 Ar 8.6343 2.75647 0.961193 0.922835 -0.147633 0.828587 -6.15795 -7.04876 -14.4615
100 1 Ar 9.59268 2.93069 1.2759 0.437989 0.793193 0.133696 7.3029 28.4813 5.49067
538 1 Ar 8.89551 3.73336 0.559239 -0.621645 0.827104 0.125546 8.0357 -18.8233 0.782592
974 1 Ar 7.85064 3.8126 0.790892 0.0670975 -0.723647 -0.232262 4.43803 16.337 10.7639
68 1 Ar 10.1844 4.06654 1.65683 1.59142 -0.0547385 0.363138 -24.3077 9.48661 -5.60707
135 1 Ar 9.99096 3.51037 0.449803 0.163927 0.244336 0.185812 -5.06084 4.04459 -4.44
102 1 Ar 9.32172 5.40235 0.138364 1.36476 -0.550884 -0.7241 0.193975 6.12867 -6.0615
106 1 Ar 10.6918 3.21008 1.169 0.0179966 0.786043 -0.0628598 -9.09272 0.292724 -5.08478
506 1 Ar 10.9845 4.03321 0.60349 0.548735 -0.0798491 0.395318 -2.09122 2.02884 -7.29218
66 1 Ar 11.8842 3.42046 0.313016 0.212913 1.7432 -0.173774 -21.6553 -17.2327 4.2456
3671 1 Ar 12.5007 4.11546 16.7215 -1.16986 -1.25052 1.27297 15.5606 9.44412 -5.93469
3747 1 Ar 12.719 3.27767 0.951395 0.72087 0.933133 0.850892 10.9252 3.0057 12.4851
146 1 Ar 13.4469 3.88988 0.554968 -0.748268 -0.537005 0.546712 8.39566 7.95929 -5.70753
155 1 Ar 12.0076 4.2059 1.07285 1.01752 -0.338874 -0.99027 13.0342 -4.29495 -21.0366
3714 1 Ar 14.3639 4.05339 1.14647 -1.21396 0.0331965 -0.729899 3.37312 -9.78921 7.89322
150 1 Ar 14.5843 4.65044 0.264086 0.628181 -0.704368 0.271417 0.0255975 -7.00916 6.32544
402 1 Ar 16.3134 3.61446 1.22674 0.304664 0.292809 0.297868 14.0255 -5.15675 -19.4
3642 1 Ar 15.4285 3.97444 0.818479 0.915851 0.229044 -1.17243 -14.7433 -0.899175 -14.5619
524 1 Ar 1.27296 5.14428 1.95215 0.0249185 -1.73966 -0.215292 -2.14819 -6.59556 2.16049
123 1 Ar 0.969203 5.93675 1.32321 0.320091 0.522261 -1.52788 -8.58659 7.34055 -6.68199
200 1 Ar 16.7573 5.30443 1.44611 -1.1595 1.01145 -1.87038 7.13665 8.80579 -2.79432
163 1 Ar 0.840241 4.7705 0.885387 0.899386 1.15884 0.662836 -8.8519 42.0703 7.00819
3725 1 Ar 1.32641 5.18834 16.2421 0.493577 -0.809006 -0.150545 19.5146 -12.4542 -1.91763
522 1 Ar 3.22387 4.91915 1.28219 -1.70657 -0.591936 0.191347 -16.996 5.84011 23.6956
173 1 Ar 1.60277 5.6462 0.425705 -0.715758 -0.324784 -1.17695 -12.9454 9.24404 -4.48795
526 1 Ar 3.33288 5.82355 0.293901 -0.442985 -0.000982323 -0.99656 -9.23552 -1.01141 -5.06422
129 1 Ar 4.33345 5.02897 1.59446 1.91261 1.096 -0.684438 -8.70624 3.74655 -2.77275
3732 1 Ar 3.82683 5.92891 1.17563 0.843224 -0.339608 -1.62553 8.98358 0.000562675 15.9779
174 1 Ar 5.03147 5.91583 1.26296 -0.938462 2.08215 -0.125019 -20.4874 -34.2549 -34.6039
130 1 Ar 5.24758 4.64138 1.2952 -0.411006 -1.4362 -0.154547 12.5876 -1.17461 -5.43076
178 1 Ar 3.50912 5.48564 2.20847 0.807344 0.179596 1.40982 14.1441 -35.9104 -21.4968
3296 1 Ar 5.66159 5.80407 0.297574 -1.31736 0.606454 1.02406 -10.939 2.99541 4.04554
3735 1 Ar 6.69556 5.58379 0.311044 -0.598496 -1.45849 -0.160727 12.7687 -1.0643 -5.18069
3740 1 Ar 7.75835 5.20514 0.382923 0.384301 -0.0049228 1.76088 -6.96051 -6.06022 2.38529
219 1 Ar 8.73497 6.2996 0.368415 -0.263467 -0.817132 1.54069 -1.1417 3.12754 1.60147
977 1 Ar 7.6542 4.85855 1.49142 0.2108 -0.562211 -0.605512 -0.00216579 -8.49373 12.9536
180 1 Ar 8.23534 5.66238 1.22947 -1.15713 -1.86373 0.457616 13.1282 15.2387 -4.7696
3704 1 Ar 10.0242 4.54054 0.0561769 0.730312 1.03688 -0.351218 -17.4084 -2.3383 22.973
94 1 Ar 10.3537 4.83767 1.01341 -0.56514 -1.07317 0.598169 6.0352 7.74755 -18.7129
494 1 Ar 9.30355 4.6295 0.864492 0.232042 1.26405 0.337554 13.306 5.75734 -10.5351
181 1 Ar 10.5609 5.74442 0.343226 -0.404975 -0.0297886 -0.141983 -0.706275 -3.05976 -9.69714
148 1 Ar 11.2398 5.20351 1.36953 -0.0302403 -0.581054 0.661755 2.67443 -3.82633 13.1752
191 1 Ar 11.4836 4.93248 0.364671 0.887833 -0.177086 0.401175 3.60798 6.22525 -8.08131
190 1 Ar 13.9626 5.54821 0.111173 -0.835005 -2.53871 -1.20515 0.479069 -2.0529 -2.70016
989 1 Ar 12.6383 6.04149 0.421352 0.807622 0.811688 1.04317 -14.0088 -1.7024 9.76147
196 1 Ar 13.4105 5.89277 1.39369 0.17993 1.10499 -0.751299 -5.00362 10.2199 -0.830113
81 1 Ar 14.949 5.03976 1.29798 0.321396 1.05355 0.94513 -11.4222 15.0559 -39.9268
151 1 Ar 13.8106 4.9602 1.13846 1.47225 0.254778 0.54844 -2.30682 1.34094 -16.9417
559 1 Ar 14.3701 6.23478 0.939377 -1.26783 -0.254564 -0.564559 -0.548309 -5.15317 0.289308
120 1 Ar 15.8707 4.74068 1.36883 -0.292858 -0.512637 0.479662 31.9385 0.242706 -17.5547
561 1 Ar 15.6771 5.82952 1.69521 0.653258 0.0682781 -0.475475 5.14637 -8.60008 -14.3587
564 1 Ar 0.0681577 6.28076 1.90422 -0.0453142 -0.36748 0.633381 13.3512 -7.79123 11.8392
126 1 Ar 0.966945 6.65465 0.390624 0.0326645 1.15076 -0.220691 4.78677 -6.9442 2.29328
3758 1 Ar 0.810765 7.10754 1.40262 0.646298 0.487954 0.193783 2.73514 -4.23099 2.90234
1010 1 Ar 2.03151 6.83295 0.0400451 0.106865 -0.586002 -0.493471 -3.08957 6.75348 -2.77281
965 1 Ar 1.81384 6.7128 1.30202 0.497129 0.940614 0.374255 -69.6444 -22.9989 2.63536
157 1 Ar 2.64924 6.51923 0.827818 -0.127038 0.508916 0.119228 27.0703 -18.6976 -18.8173
211 1 Ar 3.57208 6.98797 0.985946 -1.5654 1.18501 -0.581894 2.27337 5.32551 -2.5938
243 1 Ar 3.18235 7.17807 16.7661 0.244638 -1.6848 0.595236 8.83471 -1.7781 28.4713
606 1 Ar 4.12332 7.87684 1.35769 0.328898 0.609532 0.294323 -7.55902 10.318 1.97282
653 1 Ar 4.70211 6.63446 0.473965 0.405719 1.11508 -0.151711 -1.73198 0.587621 3.94817
569 1 Ar 5.06376 7.50136 1.53451 -0.362924 -0.64415 -0.754638 5.37457 9.49687 8.69714
3375 1 Ar 6.28202 6.34307 0.942715 -0.594594 -0.602935 1.05649 -0.793173 5.23784 8.46401
3779 1 Ar 6.87285 7.31808 0.657821 0.386479 -0.234684 0.609566 21.7064 -8.99908 3.39381
1019 1 Ar 7.87228 7.39816 1.49695 0.593525 0.50882 1.22873 -40.3972 -16.2773 -32.0597
3859 1 Ar 7.73849 7.50198 16.5841 -0.347175 -0.513237 0.217218 -36.0744 16.447 10.92
215 1 Ar 7.56842 6.38531 0.457313 0.494853 0.150874 1.05316 0.0902165 1.31558 -2.18435
183 1 Ar 8.49224 7.46927 0.521346 -0.317979 0.370318 -0.816693 -7.28934 -39.7514 -3.11271
544 1 Ar 9.63411 5.98432 0.975449 0.225047 -0.841735 1.48215 -2.5966 -1.29359 -9.55523
3836 1 Ar 10.7709 6.95245 0.754639 -1.29998 -1.14581 -0.801452 4.50496 2.90582 -34.8126
3384 1 Ar 9.88429 6.7115 16.6328 0.52093 -0.12661 -0.671405 2.25433 1.25971 4.86766
950 1 Ar 11.6205 6.00415 0.734426 0.758954 -1.02026 -0.219158 -8.7004 9.47102 -4.55686
713 1 Ar 11.9392 7.27003 0.434657 0.182234 -0.64882 0.301657 18.8685 -23.111 14.417
993 1 Ar 13.5099 6.50745 0.256117 0.604281 -0.735398 -1.36516 18.8008 2.75503 -3.02993
193 1 Ar 14.1056 7.37505 0.463771 0.0911019 0.386324 2.59461 -33.0325 25.5424 -1.52892
960 1 Ar 14.7861 7.22089 1.16018 -1.75958 0.955964 0.661915 23.9677 -5.49321 26.116
557 1 Ar 13.8617 6.93781 1.59709 -0.649559 1.65441 0.0169187 -3.54717 -0.606949 -5.07205
158 1 Ar 16.7493 7.63524 1.1503 1.14831 0.209753 -0.729541 -16.6327 10.5631 15.5333
605 1 Ar 16.7604 6.51398 0.850089 0.0894925 0.403917 -0.354131 7.41214 5.01139 4.40528
3790 1 Ar 15.7365 7.21398 0.643296 0.680868 1.46269 -0.161916 5.00267 12.9146 20.8998
597 1 Ar 16.0629 6.83573 1.61959 1.10735 -0.0462686 0.479366 -14.0042 15.6265 -0.64459
554 1 Ar 15.6538 6.55851 16.6756 -1.26384 -0.13861 0.372018 -1.85747 -19.5613 -13.0192
922 1 Ar 0.919344 7.96458 0.641608 -1.7473 -0.0123064 1.28939 -10.0998 -31.3347 26.7906
201 1 Ar 1.62887 8.06531 1.5504 0.345122 1.80977 0.148926 15.8829 -3.55701 -3.14062
3808 1 Ar 16.4607 8.69738 1.48807 -0.286924 -0.336408 1.13481 -1.13161 4.16131 -3.08559
608 1 Ar 0.627189 9.00739 0.948827 -0.880641 -0.617866 0.456236 -2.50895 -0.146892 11.3349
167 1 Ar 2.06732 7.9943 0.236936 -1.21737 0.332409 -0.733233 9.63364 -28.3738 8.91933
717 1 Ar 2.5009 8.82067 0.881325 0.312947 -0.251707 -0.411652 -10.1662 7.12913 -7.91066
207 1 Ar 2.64476 8.47023 1.86473 0.357244 1.30136 0.67301 -4.42461 -24.4503 1.81287
652 1 Ar 4.40809 8.69624 0.337885 1.31177 1.01289 -0.914743 3.33661 -16.6463 2.68957
204 1 Ar 3.64133 8.92056 1.28095 1.97317 -0.273688 -0.439166 1.50923 -6.65404 0.988383
607 1 Ar 3.12709 8.01194 0.922099 1.71594 -0.188668 0.941835 7.83625 -11.8951 -4.31011
3016 1 Ar 5.27243 8.02557 0.468557 -1.33226 0.974608 -0.142329 12.3852 7.61254 15.7307
297 1 Ar 5.3089 9.09381 0.77511 -0.603666 0.0571133 -0.641769 3.95525 -12.1621 -12.8348
220 1 Ar 5.98638 7.3706 1.13995 0.900867 -0.0388054 -0.823869 -0.795503 6.61842 8.81354
1014 1 Ar 4.81484 8.83383 1.74188 -0.136717 0.468571 0.952433 -11.3352 -15.2958 -11.8108
628 1 Ar 7.34675 8.64763 16.535 0.0619649 -0.571324 -0.399775 -0.687539 -8.34543 7.5742
581 1 Ar 6.77018 7.88876 1.70941 0.018088 0.307761 0.101131 8.9029 -2.92136 -12.6836
660 1 Ar 6.19908 8.57999 0.579346 -0.952436 1.01401 -0.124765 -7.5179 -12.9694 -14.1006
141 1 Ar 8.69904 7.70721 1.89279 0.660024 -0.644648 0.155519 46.8413 27.4765 13.8442
224 1 Ar 8.44113 8.7841 16.6799 1.55454 0.650365 1.28831 -20.7635 1.12586 9.15663
1018 1 Ar 7.16211 8.48174 0.888279 -0.617412 -1.78737 -0.330033 19.3061 -4.28386 -0.726396
623 1 Ar 9.61145 7.10865 0.961534 -0.22715 -0.100377 -1.24981 -2.56329 -3.87887 3.5453
3739 1 Ar 9.40158 8.41861 0.987261 0.460709 0.345672 0.449535 -0.190917 17.6431 10.0316
3821 1 Ar 9.35682 7.82852 0.161683 -0.0429319 -1.30611 1.87954 22.2273 -6.90809 -13.2363
586 1 Ar 10.6823 8.83373 1.24087 -1.72433 -1.10194 0.533645 -12.4253 6.90766 12.7962
186 1 Ar 10.272 7.92124 0.711389 -0.643206 -0.771092 0.478609 17.1569 1.46194 -1.91464
152 1 Ar 11.18 8.78164 0.328537 0.837642 1.61625 -0.815821 38.7336 27.3873 2.39794
197 1 Ar 13.535 8.48962 0.0646876 -0.950062 0.922019 -1.62782 -2.00095 4.32189 3.60308
231 1 Ar 12.2094 7.31259 15.9425 -2.015 -0.242024 0.588863 -5.57069 -8.16969 -6.2161
195 1 Ar 12.6783 9.50685 16.7408 1.0335 0.396467 -1.36465 -26.6647 -6.96085 -17.6509
353 1 Ar 13.0016 9.3038 0.906341 0.735247 0.0466775 -0.804274 26.9389 -14.5718 22.991
1354 1 Ar 12.3491 8.46884 0.465779 -0.0988835 0.942618 0.820895 -3.732 1.90375 3.64088
3798 1 Ar 14.9483 8.2124 0.839327 0.0233961 -0.752373 -0.445237 -3.70715 9.74093 -3.22513
3439 1 Ar 14.3064 9.0788 1.0925 1.54099 0.0379151 0.153583 -6.36009 2.57401 0.513959
594 1 Ar 13.7734 8.09134 1.22636 0.10564 0.177244 -0.972605 -2.6049 -1.17482 -1.69986
603 1 Ar 16.1381 8.24925 0.349446 1.46456 2.06253 0.506197 9.74632 13.7053 21.5292
1117 1 Ar 15.3401 9.38323 1.04716 -0.183892 0.000199825 0.470577 6.62096 -7.11595 3.88891
279 1 Ar 1.84077 9.70483 16.697 0.529463 0.556615 0.733499 -2.36615 2.73947 -7.43112
247 1 Ar 2.44555 9.85388 0.763224 -0.331716 -0.109382 0.634936 -3.76678 8.63312 8.22827
649 1 Ar 2.99517 10.0242 16.6875 0.103419 0.703423 -0.588282 3.16067 -7.50595 -5.07682
638 1 Ar 4.12166 9.68366 1.92198 0.094767 1.17966 -0.131634 -29.36 14.1684 -21.9088
217 1 Ar 3.46941 9.90454 0.906526 -0.563658 -0.655367 -0.163456 -16.4178 7.41219 16.6892
647 1 Ar 3.5067 9.17796 0.156419 0.0140157 -0.0614302 -0.337112 -2.21429 -7.2753 5.92941
1414 1 Ar 4.42697 9.62745 0.7837 -0.144826 -1.35 1.12854 -15.4587 -29.0628 32.6084
175 1 Ar 5.3254 9.7702 1.51933 -0.595124 0.140123 0.47064 1.66576 16.4208 16.9877
1051 1 Ar 4.48266 10.5851 1.29768 -1.61308 -0.782375 0.00726711 -5.22308 1.08833 -6.96598
655 1 Ar 5.14453 10.2216 0.509403 -0.80597 2.08481 -1.0705 14.2691 25.0544 -6.77351
3904 1 Ar 6.68882 9.4137 0.213378 0.692001 1.29035 0.0839026 5.2551 9.38997 1.19338
1059 1 Ar 6.12032 10.0768 2.32608 1.75134 -0.143302 0.472111 -3.41115 0.510536 -0.717135
304 1 Ar 7.65032 9.34781 1.35389 -0.474531 1.05749 -1.88704 -3.50867 -6.88611 1.10944
665 1 Ar 7.79701 9.75051 0.326249 1.21727 -1.53371 -1.0743 -4.98073 0.493687 -8.068
3784 1 Ar 8.65945 9.36209 0.84314 0.040216 -0.998652 0.558555 -18.6333 -18.1524 13.9148
3867 1 Ar 8.43907 10.8068 0.374675 0.417693 0.36868 -0.509966 2.84235 -0.829915 -9.46752
260 1 Ar 7.94231 10.3546 1.19877 0.657011 0.452801 0.59457 5.5659 8.83916 5.03373
253 1 Ar 9.51316 9.6303 1.32151 0.269394 0.0947576 -0.679393 6.85426 0.545066 -13.7778
3787 1 Ar 10.5645 9.92924 0.846641 -0.674566 1.32678 -0.250975 43.3726 -18.8184 19.3686
669 1 Ar 12.0506 9.57289 0.923924 0.533144 0.13233 -0.284449 -21.9078 8.60367 0.721648
309 1 Ar 12.6376 10.7061 1.54193 0.84135 -0.239166 0.370528 8.70514 -2.56921 -2.19589
636 1 Ar 12.0829 9.03554 1.84407 -0.139124 -1.55035 -0.398032 0.281778 -6.27144 5.84765
271 1 Ar 12.7733 10.4964 0.441003 -0.313065 1.05938 -0.985343 23.6056 -9.44441 -4.56431
996 1 Ar 13.6636 10.197 1.12775 0.0722721 0.391272 0.786616 -6.24408 -36.3567 -5.86543
194 1 Ar 14.6475 9.96909 0.507921 1.46564 0.359268 -0.388446 2.1629 -2.62017 -8.18993
671 1 Ar 15.1479 10.8748 16.7614 0.640402 0.0190334 0.429844 -47.0926 -11.9206 -6.08473
1073 1 Ar 14.5857 10.6911 1.26727 0.959312 -2.18838 -0.606498 4.37943 5.71068 10.2985
273 1 Ar 14.0357 10.8135 0.285101 0.602149 0.662174 0.0958056 3.07464 -20.9806 -0.55925
199 1 Ar 16.2077 9.92929 1.39569 0.965925 -0.0692598 1.48956 24.7518 -20.2366 4.5123
315 1 Ar 15.7823 10.3126 0.558149 -0.292278 0.480531 -1.00785 1.76928 -5.84898 -13.4672
634 1 Ar 16.4895 9.33325 0.481022 0.113514 -0.786132 0.702285 -3.97896 2.2802 -3.12191
241 1 Ar 0.658718 11.3008 0.573553 0.0134631 -0.68096 -0.709473 -4.13231 -9.37094 0.792002
685 1 Ar 1.12273 11.9397 1.32178 -0.204603 -0.798098 -0.377099 -14.0808 13.015 -8.40061
208 1 Ar 0.166003 10.5755 16.7376 -0.620241 1.37263 -1.08829 -5.93389 -1.16808 -2.48878
212 1 Ar 1.25873 10.8924 16.5004 -0.38699 1.03936 0.314027 -0.831025 -4.38201 -0.991844
648 1 Ar 2.33786 10.7236 0.132141 -0.501926 -0.703407 1.06052 -30.6453 13.2672 -9.48284
245 1 Ar 1.59991 11.688 0.30839 -0.989669 -0.0750069 -0.081458 11.0913 7.70781 2.83333
1090 1 Ar 2.44605 11.2967 1.05261 0.271365 0.0803017 0.961378 5.50142 -9.08154 -0.389555
689 1 Ar 3.2812 10.938 0.501485 0.41122 0.953498 -0.891103 12.165 -8.31203 19.3567
1056 1 Ar 3.29503 12.0136 1.80223 1.16232 -0.413522 -0.00289259 -15.6458 -30.4055 7.31824
1089 1 Ar 4.60359 11.2432 0.248462 -0.0378808 0.659915 -0.96282 12.2959 -0.395007 -8.00725
616 1 Ar 4.34112 11.478 2.04584 -0.00584317 0.474587 0.562484 1.49449 7.83603 -8.20159
691 1 Ar 5.22215 11.6782 1.04764 -1.2486 -0.658774 -0.119244 -4.00339 6.33382 0.626495
1417 1 Ar 5.88033 10.8457 1.06588 0.0709683 -0.339786 0.822378 -0.274855 -11.2687 3.90403
250 1 Ar 4.93123 12.2803 16.34 -1.16173 1.11612 0.466224 -1.8096 -11.7315 -2.66364
3895 1 Ar 6.30568 11.6995 0.58494 1.71308 0.192798 -0.900735 -36.0133 -41.1026 5.61025
259 1 Ar 6.89995 10.4443 0.723318 -0.154485 0.813035 -1.63825 0.304232 0.805318 -1.84124
1455 1 Ar 6.79702 11.3472 1.45558 -1.21048 0.344271 -0.394083 -7.2958 -2.30939 -1.97334
1422 1 Ar 7.09665 10.2881 1.83904 0.0806101 -0.444817 0.928833 -3.15763 -2.63875 0.840708
232 1 Ar 8.48819 11.3914 1.27632 0.548781 -0.157402 0.363976 17.0705 4.91597 -10.0034
302 1 Ar 7.62065 12.2375 1.19072 -1.07348 -0.812307 1.03748 0.0693356 0.487217 -1.918
300 1 Ar 7.2934 11.5113 0.359209 -0.113166 -1.22918 0.932324 18.3677 -0.965072 5.90134
668 1 Ar 9.76589 10.5189 0.638935 0.529653 0.0604401 0.708981 -24.7959 34.541 30.7908
626 1 Ar 10.7285 11.0502 1.18306 1.24437 0.625342 -0.493586 7.99459 -0.430846 -0.862548
3832 1 Ar 10.1299 11.8267 16.7629 0.170299 0.388186 -0.152559 0.189873 -5.51106 -5.92689
1461 1 Ar 10.0448 11.8534 1.03345 0.639026 1.00208 0.0803731 -0.270538 -15.9051 11.6781
3866 1 Ar 11.2274 12.1086 0.314419 -1.17203 -0.00572106 0.495075 2.46664 -3.64422 8.62361
1070 1 Ar 12.6264 11.7758 1.98498 -0.0381487 1.04323 1.22021 14.0495 -3.92806 -4.92393
270 1 Ar 13.6409 11.1876 1.17292 0.171764 2.04487 -0.271243 -5.64623 44.1441 -4.50844
351 1 Ar 12.6674 11.5211 0.905155 0.0854844 0.699788 -0.0269563 5.80522 -2.769 5.65644
3876 1 Ar 15.3068 12.2902 16.4454 0.0220074 0.713875 -0.548281 21.5132 -11.9928 27.1428
360 1 Ar 14.5046 11.763 0.255264 -0.0102477 -0.674875 0.155097 9.61987 -2.05296 3.47683
3884 1 Ar 15.4342 11.2391 0.940092 -0.131702 0.501232 1.33602 3.11089 14.1955 5.9247
275 1 Ar 16.014 11.3377 16.7707 -0.221742 -0.727994 0.109183 23.5699 11.1345 -1.57711
321 1 Ar 16.4105 11.9961 0.620719 0.400183 -0.510639 1.03419 5.70618 9.78483 20.2054
726 1 Ar 16.3527 12.5381 16.5232 0.435115 -0.0481651 1.53929 8.29468 22.2519 20.6054
687 1 Ar 16.5432 10.9919 1.04823 0.11576 -0.284435 -0.598404 -3.29015 -14.9584 -12.5993
288 1 Ar 0.556191 12.2621 0.222489 -0.713053 -0.12618 0.391015 -30.852 -7.806 -10.8974
368 1 Ar 0.229718 13.3404 0.199439 0.356373 -0.590726 -0.974997 -7.39547 -8.24657 1.89157
692 1 Ar 1.31464 12.781 0.532842 -0.832022 0.54543 1.92162 28.1033 19.9934 17.5288
686 1 Ar 3.17013 12.3344 0.821115 -0.979428 -0.00155538 2.35435 -23.6799 5.51711 21.1734
361 1 Ar 2.34877 13.6346 16.3773 0.619057 -0.687768 0.799261 14.8188 4.18964 -10.893
725 1 Ar 1.87643 13.4518 1.21433 0.850313 0.351179 0.20923 -0.681085 -2.84107 1.71358
3925 1 Ar 3.1204 14.3253 0.718867 -0.89927 0.693468 0.819721 4.3572 -2.45516 4.54922
762 1 Ar 3.94572 13.4333 0.924051 0.343094 0.643705 -1.72799 -10.036 -13.5605 -5.96378
690 1 Ar 4.02519 11.5288 1.01425 -1.57172 0.566702 -0.159001 -14.523 14.4682 15.6292
650 1 Ar 5.70562 12.5436 0.329625 0.456493 -0.186449 -0.3898 -14.1391 -9.73058 16.5558
1456 1 Ar 4.271 13.0664 16.5058 -1.22768 0.434985 0.954991 1.72204 9.38435 0.500732
332 1 Ar 4.86759 13.6862 0.468607 1.26662 1.36307 -1.01595 4.18972 -6.85878 -0.450098
730 1 Ar 4.59326 12.577 0.623593 -0.653669 1.53837 0.480364 15.6225 1.55238 12.8684
1094 1 Ar 6.29908 13.3913 0.184018 0.39433 0.951252 -0.352372 -3.14218 0.0191053 16.9134
3900 1 Ar 6.51913 12.5489 1.10833 0.307473 0.352447 -0.365972 -0.263168 18.8337 30.3323
339 1 Ar 6.69282 13.8079 1.14075 0.987708 1.32251 0.476459 5.45901 -4.31394 3.80336
295 1 Ar 8.17815 12.3608 0.10446 0.0453766 -1.37745 -0.963246 -0.559582 -2.51778 9.47488
296 1 Ar 7.42467 13.1903 0.405938 -0.124916 0.630636 1.24934 4.32863 9.59219 10.3809
305 1 Ar 8.54224 13.6688 0.473207 -0.992035 -0.207597 -0.381703 -8.30148 -18.8782 0.809628
1538 1 Ar 8.48216 13.2251 1.55298 -0.840647 1.00117 0.633435 -14.2251 -11.1486 0.657021
662 1 Ar 10.0624 12.7297 0.528743 -0.658316 1.58933 -0.396458 21.6701 15.9479 -10.6294
707 1 Ar 11.019 12.1702 1.44474 -0.342555 -0.0871737 0.245917 -27.6131 -0.47977 10.7799
747 1 Ar 9.40487 13.6309 1.47966 -0.475896 -0.482758 -1.10053 0.711761 5.40861 3.16986
3941 1 Ar 10.7604 12.5685 16.2792 1.36222 -0.535011 2.15424 2.74338 7.68232 -0.445314
3512 1 Ar 11.7607 11.3887 1.45719 -0.788991 -0.00938263 -1.00774 -7.94314 2.47567 15.6932
749 1 Ar 11.5144 13.5642 1.02079 -0.703172 -0.115601 0.170119 5.42843 -10.9764 9.28111
346 1 Ar 11.0671 14.4659 0.722789 -0.561775 -0.703074 2.5018 -11.8746 -3.3085 -8.17768
385 1 Ar 11.8661 13.047 16.7877 -0.586572 -0.531145 -0.0914648 -8.61885 -6.45204 -6.85764
354 1 Ar 13.4457 12.849 16.665 -0.647361 0.377717 -0.698725 6.11631 1.61433 -20.851
387 1 Ar 11.9708 12.3523 1.20759 1.7486 -0.226092 -0.387037 25.9606 22.466 -11.8321
3912 1 Ar 13.8765 13.4771 0.840874 -0.00168192 -0.894234 -0.740197 -10.6846 1.56676 2.67152
3591 1 Ar 13.5128 12.3409 0.804835 0.827152 0.427758 -0.382183 6.03781 -4.30795 5.7927
3959 1 Ar 14.4129 12.8093 0.22864 -0.885936 0.896785 -1.60615 16.6636 -2.69996 0.281361
670 1 Ar 14.5033 12.1205 1.34049 -1.06502 0.266807 1.14481 2.56932 2.10505 -3.59613
356 1 Ar 14.1249 13.1483 1.85302 0.397259 -1.47641 -0.515315 9.1016 13.9768 -34.2576
3924 1 Ar 14.956 13.472 1.04769 -0.727616 0.352735 1.25718 -9.76138 9.94243 -18.7795
318 1 Ar 15.3952 12.4165 0.691521 -2.31372 0.612533 0.0353304 -0.243949 -0.646938 2.09433
282 1 Ar 1.68564 14.9477 16.4593 0.114907 -0.200592 -0.575572 3.67653 -3.61823 -13.5395
758 1 Ar 0.107558 14.6548 0.817299 -2.01028 -0.450121 0.478774 4.43392 3.78642 -25.6674
1171 1 Ar 0.903263 13.8667 0.759703 -0.754558 0.199462 0.371578 29.863 9.62688 -7.05483
365 1 Ar 1.48904 14.9151 0.681325 1.6556 0.573937 1.15373 -19.7313 18.6699 21.1373
3 1 Ar 2.11209 14.1837 0.423295 -2.48583 -0.116853 -0.769695 2.47875 -16.2329 2.09288
17 1 Ar 3.96786 14.3347 1.41322 -1.4881 0.972215 -1.2516 -7.34551 2.85254 8.41437
376 1 Ar 4.20139 14.5056 0.289371 -0.791197 0.342244 -1.19607 0.927974 -4.51048 -1.58948
736 1 Ar 5.31988 14.6745 0.41073 -0.0112867 -0.15085 0.238684 7.68156 8.84145 -28.4105
3580 1 Ar 5.98266 14.6311 1.25795 0.903065 0.889478 0.985166 12.1588 -10.3633 0.0427434
694 1 Ar 6.44605 14.4809 0.344707 0.028737 1.43318 -0.0878776 6.80858 -16.8227 0.902769
3940 1 Ar 7.11521 14.9809 1.0061 0.0772235 -0.591792 0.186126 7.06441 3.4263 -0.862447
3981 1 Ar 7.69616 14.3235 0.131704 0.13863 -1.77661 -0.116728 6.61376 -3.32658 25.8362
337 1 Ar 8.25961 14.9152 1.10557 -0.127837 -1.02749 -0.792585 -24.704 -14.9872 -2.50576
698 1 Ar 7.708 13.9556 1.58187 -0.0541332 0.070346 0.290851 -4.73362 6.00432 -0.275025
308 1 Ar 9.06728 14.5345 0.398257 0.208781 -0.0083035 1.3868 -1.26392 35.8296 9.8503
746 1 Ar 10.846 13.4605 0.203454 -0.143159 -0.644658 2.04955 24.3522 -1.84699 29.497
381 1 Ar 11.9369 15.4341 16.3028 0.920594 0.505806 -0.284861 -13.6854 4.38934 -18.0379
352 1 Ar 11.7545 14.8228 1.40049 0.633946 0.492118 -0.500244 -14.2762 14.3463 27.1776
350 1 Ar 12.4201 14.1007 1.25174 0.271201 -0.445791 1.33287 28.2056 -7.60746 -45.6081
3950 1 Ar 13.4902 14.2999 1.44154 1.56216 0.244966 0.211064 -0.127846 3.13497 -22.6153
39 1 Ar 14.5211 14.4053 1.17571 -1.95113 -0.311265 -0.406801 -3.88095 10.4583 -1.4363
681 1 Ar 14.0344 15.4142 1.20143 -0.431983 1.78149 0.972419 -8.26202 0.643004 5.87031
317 1 Ar 15.9979 13.6198 0.744545 -0.691479 1.46279 -1.02213 12.439 -16.8446 31.6181
357 1 Ar 14.8875 14.5709 0.184942 0.712684 1.46942 -1.72983 5.15347 -13.2473 -17.4688
1078 1 Ar 15.7771 14.1239 1.66973 -0.854102 -0.0683419 -0.812633 -2.64301 -3.47564 12.9405
724 1 Ar 15.8281 14.6812 0.796812 0.693905 -0.914026 -1.20726 4.17616 7.16034 -6.19687
3607 1 Ar 16.614 15.3753 16.6942 1.04564 -0.311199 0.531617 -37.3097 -12.6534 -17.1788
45 1 Ar 0.686638 16.7225 0.89042 -0.181605 0.401427 0.88395 1.986 -1.73255 6.59476
761 1 Ar 3.03293 16.2414 0.70937 0.830382 -1.10179 -1.07034 7.24393 -3.48423 -6.31115
49 1 Ar 2.15788 15.8623 1.15954 -0.0814651 -0.318036 -0.88621 -8.36464 -3.00226 5.77714
364 1 Ar 2.33326 15.8076 16.5235 -0.672004 0.216716 1.31654 11.0765 -2.85029 4.16116
3929 1 Ar 2.32175 0.174375 0.0992852 -0.320513 -0.10558 -0.590397 10.8673 -25.8712 -11.1904
459 1 Ar 3.72318 15.2329 0.827015 -0.766917 1.37811 0.849716 -8.23382 17.2011 6.81306
374 1 Ar 4.1579 16.3073 0.86839 -0.0712836 0.795922 0.931091 -12.7081 -14.2171 0.254726
3971 1 Ar 4.53561 15.5199 16.7242 -0.388455 0.249472 -1.60361 -4.48338 -5.97464 23.9824
3977 1 Ar 5.65169 0.0261476 1.54459 0.225718 0.334174 -1.88493 -0.368654 -8.84628 9.35559
380 1 Ar 5.20583 16.2175 0.658419 -1.08885 -0.656945 0.591243 8.02781 7.98626 -5.83862
740 1 Ar 6.09567 0.0502005 0.538226 -0.242972 0.12719 1.39289 -4.30211 31.9 21.4453
336 1 Ar 4.7862 15.3534 1.05561 0.0261672 -0.83488 0.767762 -17.1031 -4.89895 -2.03153
3939 1 Ar 6.23371 15.5959 0.650035 0.0818354 -0.470913 0.42559 -2.82803 -14.5662 26.5694
460 1 Ar 7.4995 0.167637 0.779521 -0.408171 -1.02918 -0.314208 12.3586 10.3631 -0.0159789
733 1 Ar 7.22831 16.0539 0.424395 -0.257316 -1.02779 -0.0738552 -5.60427 -5.84216 -6.74896