ITEM: TIMESTEP
8700
ITEM: NUMBER OF ATOMS
4000
ITEM: BOX BOUNDS pp pp pp
0.0000000000000000e+00 1.6795961913825074e+01
0.0000000000000000e+00 1.6795961913825074e+01
0.0000000000000000e+00 1.6795961913825074e+01
ITEM: ATOMS id type element x y z vx vy vz fx fy fz
446 1 Ar 1.48562 1.83627 16.6317 0.194983 -0.612003 -1.11434 7.55447 10.3488 1.64242
3966 1 Ar 0.0702578 0.693008 0.0603589 0.156132 -1.40176 -1.93124 1.19113 7.52514 15.193
798 1 Ar 0.979796 1.32137 0.604486 0.803817 1.31997 1.02525 -8.14867 -16.2959 3.68964
91 1 Ar 3.28958 0.476023 1.22293 -0.624708 -0.26148 0.741158 1.01666 -18.9788 -21.5158
12 1 Ar 1.35652 0.292527 1.15184 -0.389302 0.97088 -1.01597 25.1282 16.6132 14.153
46 1 Ar 2.1619 0.745262 0.653049 2.01482 -1.17159 -0.0918173 2.80421 -2.87947 15.7175
412 1 Ar 1.13414 0.400737 0.0340497 -0.770114 1.01148 -1.42594 -12.8259 -1.06749 12.3523
489 1 Ar 2.99108 1.46664 0.717612 -0.224127 -1.78402 -0.871867 -8.16187 19.9952 26.1833
1133 1 Ar 4.54041 0.373571 1.85283 0.76954 -1.34906 0.104408 0.681382 -0.863203 0.313042
457 1 Ar 5.49842 0.973342 1.09339 -0.736333 -0.45161 -0.141044 -39.7837 6.61888 1.76953
500 1 Ar 4.12357 1.47421 0.200312 -0.753083 -0.561127 2.48255 -0.126681 -6.99944 -2.78004
334 1 Ar 7.47009 0.893681 1.56107 -1.03968 -0.386263 -1.07168 9.00993 4.34944 3.64231
780 1 Ar 7.34334 1.0921 0.539791 0.830052 -0.644071 -0.746656 -1.16607 7.41384 -1.45528
15 1 Ar 6.21366 0.995221 16.7673 -0.266431 -0.390022 1.03202 6.23787 18.9434 29.4941
383 1 Ar 8.13815 0.282049 0.64326 0.683207 -0.445303 1.06391 -0.00911856 4.08595 -36.4795
384 1 Ar 9.23161 16.7893 16.3736 -1.45705 0.398503 0.652774 -3.4238 8.77776 -11.5446
3944 1 Ar 9.54203 0.853185 1.02296 -1.29483 0.778401 0.746303 -5.07639 -1.49259 20.2189
3627 1 Ar 9.19061 1.0521 0.0898128 0.950251 0.732425 0.941358 -27.4119 21.2693 3.84697
505 1 Ar 10.0479 0.601457 0.164225 -0.464611 -0.0788616 0.469401 39.9755 -24.4132 -11.7471
379 1 Ar 9.46682 1.87499 1.22914 -2.42788 -0.393759 0.91413 -11.5654 11.6008 -8.53664
474 1 Ar 10.6685 0.653243 1.07128 0.197317 0.438423 0.945058 13.7665 1.38275 -5.70512
21 1 Ar 10.3476 1.61238 0.535616 0.493505 -0.919203 0.158224 -3.28012 -6.96757 -6.61756
71 1 Ar 13.2397 1.909 0.0266409 -0.952933 -1.06435 -0.596098 -1.93262 -31.1792 -46.4419
109 1 Ar 13.8755 0.628019 1.91629 -0.405055 -0.820692 0.232601 -7.80632 -8.90971 -7.3175
388 1 Ar 12.546 0.606983 1.32845 1.69705 -0.88352 -0.0133327 14.3554 1.35411 -41.2927
3991 1 Ar 12.6473 1.18665 0.428702 0.105583 1.05565 0.713564 -12.2895 -10.9097 1.15295
429 1 Ar 13.4953 0.288515 0.956023 -0.610907 0.738634 1.38163 4.63652 -1.01939 -4.38293
79 1 Ar 15.4489 0.636585 0.589317 2.12755 -1.903 -2.22939 22.8751 8.01319 6.96591
33 1 Ar 14.4505 0.492745 0.439079 -1.90569 0.38715 0.20476 -40.1211 4.41786 -48.3515
795 1 Ar 14.7035 0.317897 1.34191 -0.0317429 -0.785533 0.762941 14.7607 18.7515 43.0595
438 1 Ar 15.7104 1.09153 1.6504 -2.20247 -1.2659 -0.228853 15.3099 14.6775 -14.7296
764 1 Ar 16.5388 0.474086 1.09389 0.437024 -0.198193 0.00122395 -11.4575 4.53161 -8.61416
439 1 Ar 16.5768 1.56946 2.47013 1.33715 1.87727 0.32253 0.729268 -3.81671 -5.74717
441 1 Ar 0.266188 2.00706 1.31113 0.0606039 -1.24693 0.345933 -3.73287 -21.7894 -3.98613
84 1 Ar 1.41452 3.12371 0.147553 -0.0877438 1.40762 -0.754995 8.92907 -13.5896 -21.303
442 1 Ar 2.23916 2.3257 0.458261 0.144419 0.177393 1.13133 26.2699 -3.45681 -40.2542
487 1 Ar 2.60754 2.31553 1.3892 1.45126 -1.02046 1.23807 3.90946 -10.7702 5.50503
1170 1 Ar 3.3737 2.19941 0.0742285 -0.282705 0.920704 0.426735 5.04949 20.3627 -3.17531
811 1 Ar 4.41387 1.31248 1.21276 0.0619615 0.0650306 -0.872388 -5.56021 -3.03948 2.83094
413 1 Ar 3.64829 2.19797 1.13192 -0.134029 -0.238433 1.3554 6.72436 -12.5641 8.86641
1134 1 Ar 3.23848 3.11893 0.801404 0.511769 0.794357 -1.23006 -9.07042 2.15028 0.163545
375 1 Ar 5.08146 2.17126 1.15353 -0.121976 0.859061 -0.713327 -3.02697 1.15396 -2.60183
95 1 Ar 6.53633 1.84665 0.964083 0.487058 0.748229 -1.3296 10.8298 20.0607 1.6915
64 1 Ar 7.7187 2.00209 1.15976 1.04803 1.20341 -0.0773885 -10.7196 -1.34277 1.18745
133 1 Ar 5.82691 2.93341 0.954252 -0.493673 -0.916439 1.42559 7.22405 -11.2749 4.12051
898 1 Ar 6.56399 3.62458 1.2407 -1.36251 0.293435 0.0135039 13.0824 8.47787 -2.61362
58 1 Ar 8.42262 1.25606 0.88289 0.709546 -0.720692 0.908416 9.16324 -0.697881 3.50297
432 1 Ar 10.601 2.84015 16.7866 2.33306 1.07569 1.03054 -5.10895 1.35668 8.20352
97 1 Ar 8.90584 2.62016 0.291227 -0.554983 0.302271 -0.690802 8.50964 -13.875 -7.54998
25 1 Ar 11.3867 2.31452 16.3484 -0.837012 -1.124 -1.1478 -5.30791 6.04984 7.53789
912 1 Ar 10.8036 2.42369 1.03231 -0.384133 -1.17747 -0.537983 8.36071 -28.1367 -3.26238
73 1 Ar 11.6867 3.08341 1.43228 0.377586 0.281357 -0.0905377 28.3356 -13.9356 17.2867
469 1 Ar 13.2984 1.7859 1.10387 -0.323643 -1.1457 -0.161496 -6.33744 -9.07268 -9.13369
513 1 Ar 13.4337 2.67854 0.55044 -1.62144 0.0544407 -0.433039 16.805 54.7639 33.9448
31 1 Ar 12.1495 2.22829 0.561997 -0.615626 1.67222 -0.772449 3.32837 1.49516 -3.23965
36 1 Ar 15.3326 1.98781 0.78386 0.824019 1.21678 0.666296 -12.6754 -18.9195 2.43778
3674 1 Ar 14.4986 3.3389 0.944743 -0.106568 0.98505 -1.98479 -5.13507 0.61996 -3.58751
3716 1 Ar 14.275 2.30283 1.17582 0.978495 0.340327 -0.357466 2.41657 13.088 -7.03106
35 1 Ar 14.5591 1.31745 1.23384 1.28333 1.63747 0.57883 2.61037 -4.12809 -11.9917
434 1 Ar 16.3707 1.54501 0.590997 0.584919 0.0703498 0.394576 -1.2688 -9.67788 -1.48814
42 1 Ar 16.1381 2.57541 0.516157 0.350555 1.19024 0.664813 13.5787 15.8619 -1.84103
115 1 Ar 15.4253 2.85695 1.34978 0.352165 1.21448 1.50261 -4.70588 14.8201 2.79769
523 1 Ar 0.428234 3.30057 0.345553 -0.696334 1.09991 0.491931 -4.97533 -2.75031 13.81
124 1 Ar 0.514751 4.01124 1.52431 -0.221158 0.13847 0.0833706 -2.26926 9.68269 -8.53555
3724 1 Ar 16.5814 4.38159 0.455967 -0.544217 0.598255 -1.73014 17.8802 -1.57084 7.48631
48 1 Ar 1.37982 3.92028 0.831829 0.47281 0.958022 0.455202 -16.4099 13.9411 2.62822
452 1 Ar 2.16419 3.302 0.842605 -0.603085 0.0314742 1.08733 25.3398 -4.82484 13.3268
92 1 Ar 2.98543 4.0509 0.193817 0.340497 1.01541 -0.442237 6.95995 2.84057 5.12712
530 1 Ar 4.08242 3.20752 1.51797 -0.410006 -0.723245 0.825503 -15.3034 -6.42887 11.9478
893 1 Ar 3.81977 4.32056 1.45237 -1.15382 -0.547988 -0.00461293 -57.3808 8.63009 -20.7484
3692 1 Ar 5.57865 4.78774 0.475924 -0.000401645 0.156447 1.66969 -16.7898 -40.9048 -5.99504
3731 1 Ar 4.03042 3.80626 0.469608 -0.0419533 1.54288 1.44017 7.68815 28.5054 33.4791
3653 1 Ar 5.1047 3.14342 1.89 2.5243 -0.692725 1.23903 4.98388 -25.9046 -2.49773
894 1 Ar 6.60993 2.7675 16.4598 -0.378921 -1.27572 0.0843444 2.94545 2.71995 -5.48869
3657 1 Ar 7.38215 3.63629 0.071845 1.19385 0.689234 -0.294309 2.39561 1.60473 -1.70102
90 1 Ar 6.87652 4.51532 0.568053 -0.367114 0.460367 0.949194 28.3174 -48.7955 -15.2552
136 1 Ar 6.2844 3.6593 0.126426 0.391536 0.507377 -0.0825343 -1.75976 13.1173 10.3604
20 1 Ar 7.55617 3.19121 15.7362 0.49851 0.35902 0.162008 -8.4558 -3.87252 3.35791
3695 1 Ar 8.84318 2.75714 1.31858 0.918932 0.241093 -1.03332 -8.25642 -4.59551 4.33283
100 1 Ar 9.86662 2.97414 1.09934 -0.287415 -0.932488 -1.38307 4.30049 -4.84953 -3.42418
538 1 Ar 9.10691 3.71393 0.898679 -0.590323 0.25102 0.773078 17.2331 5.82463 3.63257
974 1 Ar 8.18414 4.18087 0.828011 0.0425628 0.0797816 -0.391468 -11.35 3.54838 -4.89853
68 1 Ar 10.1851 3.93851 1.47045 -0.480637 -0.0862366 -0.331915 20.8016 -17.9245 -1.86697
135 1 Ar 10.2241 3.83864 0.106928 -1.3328 -0.882863 -1.33473 -15.4235 -7.20729 18.8061
102 1 Ar 9.47708 5.52277 16.7825 0.151012 0.0502711 1.10271 -0.918049 3.78021 6.14768
106 1 Ar 10.8926 3.40648 0.939477 -0.375434 -0.154965 -0.143444 -23.7794 37.697 -20.3838
506 1 Ar 11.1753 4.36612 0.297754 -0.212487 0.261786 -0.285397 3.65709 -7.96712 6.38008
66 1 Ar 11.7531 3.26325 0.400142 1.94068 -0.364332 -0.936231 10.9107 2.25277 -9.34007
3671 1 Ar 12.7516 4.19234 16.6159 0.188472 -0.039174 -0.118897 27.1861 -21.8272 -33.4344
3747 1 Ar 12.8141 3.59266 1.03422 -0.44479 1.33655 -1.30201 -1.31149 -13.0204 -6.0314
146 1 Ar 13.7299 3.83793 0.313472 0.740082 1.06385 -0.332178 -2.76075 -2.20301 12.0795
155 1 Ar 12.2303 4.4846 0.580775 0.636414 0.502708 -0.601732 -16.7638 5.45903 29.1809
3714 1 Ar 14.6362 4.30515 1.47654 0.223149 0.550831 0.610184 21.5952 -26.0069 -1.72821
150 1 Ar 14.737 4.84071 0.581595 0.25099 1.92832 -0.540904 1.77368 5.08497 -13.0455
402 1 Ar 16.4048 3.53654 1.08273 0.546837 -0.562382 -0.383634 -6.39279 -4.36948 5.90696
3642 1 Ar 15.3782 3.96528 0.840955 1.71377 -0.243181 -0.991863 14.8753 -4.80696 -10.1374
524 1 Ar 1.04063 4.96493 1.9045 -0.457806 0.523722 1.33864 -7.73018 12.3025 5.59931
123 1 Ar 0.799769 5.95962 1.23945 -0.834794 0.511723 1.27055 3.0781 3.42743 -6.50022
200 1 Ar 0.198954 5.08634 1.30939 -0.378806 0.585169 0.388068 -22.6579 4.4291 1.63042
163 1 Ar 0.935318 4.85315 0.647215 0.240198 0.497161 -0.680856 10.3692 14.0586 6.95907
3725 1 Ar 1.03125 5.19068 16.1028 -0.102748 0.424723 -0.863573 0.689785 -19.6227 14.704
522 1 Ar 2.86419 5.31596 1.39288 0.563782 0.143207 -0.222805 -2.36811 14.4269 -6.36573
173 1 Ar 1.54011 5.60241 0.163022 1.91517 -0.348733 0.214005 6.991 6.04612 1.49078
526 1 Ar 3.22965 6.16125 0.0866759 -0.421397 1.43717 0.492741 -0.485043 -4.44986 -4.58458
129 1 Ar 4.43067 5.14334 1.20872 1.24329 1.77886 1.40188 10.6 -18.6714 23.7936
3732 1 Ar 3.67768 5.93715 1.15775 -0.520442 -0.604829 0.484512 4.92795 5.86727 -14.2698
174 1 Ar 4.88215 6.11214 1.5755 -3.32954 -0.448308 -0.335046 6.6902 16.0385 -23.8406
130 1 Ar 5.63027 4.01854 1.35752 -0.419333 -0.155694 -0.043738 -16.3625 -11.1467 2.1525
178 1 Ar 4.11667 5.70376 2.09003 -1.17927 0.273731 -1.1996 -26.9239 -0.419781 18.6341
3296 1 Ar 5.50092 5.76278 0.633844 -0.670204 -0.147072 1.52421 9.33969 17.0256 22.3717
3735 1 Ar 6.55948 5.4207 0.429469 -0.936127 1.02375 -0.564367 0.442377 60.6317 13.4886
3740 1 Ar 8.23428 5.28826 0.784195 0.0626109 0.904037 0.329851 -3.18537 -10.1455 -11.3186
219 1 Ar 8.77084 6.17761 0.514832 -1.38127 -0.22415 -0.222279 4.2782 1.2307 -6.78648
977 1 Ar 7.17523 4.5342 1.57536 -0.111182 -0.29326 -1.12305 -3.70935 36.8562 -1.59286
180 1 Ar 9.15846 5.39905 1.2422 0.0193669 -0.554268 -1.51256 -12.3512 -13.9679 1.19798
3704 1 Ar 9.94989 4.68107 16.3329 -1.28934 -1.51439 -0.00564106 9.52699 0.543034 -0.987848
94 1 Ar 10.5519 5.20914 0.291351 0.179425 -0.144071 -1.73262 7.17524 15.0349 1.10387
494 1 Ar 9.79119 4.63839 0.71495 -0.438479 -1.06473 -0.337216 -12.1304 -6.06279 -6.54262
181 1 Ar 10.346 6.14933 16.5644 0.0131738 -0.263828 -1.06023 -15.8241 8.69905 -2.4673
148 1 Ar 11.4072 5.22808 1.18201 0.492104 0.585575 -2.09534 -0.916567 -3.7086 11.3511
191 1 Ar 11.7668 5.33608 0.238368 -0.2089 0.543589 0.226003 3.02529 -5.81327 5.17322
190 1 Ar 14.1349 5.58589 16.6914 -0.58458 0.356391 -0.612643 3.58285 3.97314 1.41722
989 1 Ar 12.4958 6.08152 0.448894 0.0752496 1.40763 0.429432 -5.09843 2.48414 -20.4709
196 1 Ar 13.0881 6.25894 1.25527 -0.248848 0.148883 0.595655 -3.90901 -4.43242 -2.94849
81 1 Ar 15.1669 5.34385 1.47775 0.0284004 -0.311798 -0.838229 -5.89639 -16.0529 -11.7985
151 1 Ar 14.0259 5.58687 1.01835 -0.498289 0.608533 0.806722 -3.5763 -13.6319 -22.9266
559 1 Ar 15.0167 6.3709 1.19765 0.419863 1.23163 0.659107 -8.46832 0.616551 4.39883
120 1 Ar 15.9993 4.64928 1.48241 1.29427 -0.732974 -1.62263 20.1663 -13.0767 -75.6605
561 1 Ar 16.1312 5.79637 1.81575 0.725685 0.254695 -1.03395 17.9437 -16.4967 -15.6138
564 1 Ar 0.156285 6.54368 1.85533 -1.10177 -0.0210784 0.876169 -2.38234 3.82579 4.57423
126 1 Ar 1.15641 6.77772 0.412169 -0.335964 -0.474832 0.258996 -0.292931 -4.49906 -0.0123769
3758 1 Ar 0.762657 7.3439 1.20274 0.793153 0.890555 -0.357686 18.6163 1.66681 21.8237
1010 1 Ar 2.07036 6.74655 16.6729 -0.0685621 0.0802608 -0.472941 -0.680267 -0.424325 -10.7465
965 1 Ar 1.61655 6.67203 1.55817 -0.430893 -0.200008 -0.237584 1.86463 -19.6762 -17.3319
157 1 Ar 2.37123 6.34458 0.808757 1.22832 -1.26219 -0.0464876 0.119392 -9.39719 5.64533
211 1 Ar 3.27771 6.9355 0.84037 -0.498327 -0.16995 -0.0453937 4.89118 4.07267 8.58889
243 1 Ar 3.02087 7.27061 16.6692 -0.835999 1.37981 0.312449 -14.7939 -6.60267 12.8818
606 1 Ar 4.01342 8.03841 1.17821 -0.481181 0.757471 -0.619444 44.0052 -23.2224 -27.9778
653 1 Ar 4.38688 7.01923 0.945482 1.36486 -0.52529 0.338303 5.70798 -1.2623 -36.5213
569 1 Ar 5.16459 7.68913 1.45371 -1.05216 0.352559 0.1712 -12.5656 12.2294 6.21849
3375 1 Ar 6.19403 5.85903 1.56496 -0.311623 0.0704855 0.794493 2.12758 -4.36672 -7.26594
3779 1 Ar 6.39654 6.50191 0.439817 -0.752127 -0.727211 0.153579 7.82307 17.5974 24.4638
1019 1 Ar 7.97967 7.1108 1.61041 0.809166 -0.791063 -0.117001 3.65464 -1.82962 3.04365
3859 1 Ar 7.48239 7.23883 0.282297 -0.373948 0.306705 0.62663 -1.63684 1.04705 0.0602985
215 1 Ar 7.67496 6.12607 0.275412 -0.31824 -0.815235 -1.85506 9.21902 14.1331 -22.446
183 1 Ar 8.63559 7.24658 0.581356 -0.502353 -0.165925 -0.150022 -11.1546 7.52512 0.844183
544 1 Ar 9.84368 6.10664 1.05758 0.0217197 1.87453 0.713955 1.75762 23.3632 -10.7538
3836 1 Ar 10.4094 6.87443 0.573619 -0.373589 -0.812761 -2.08715 8.46926 -9.54236 -26.8954
3384 1 Ar 9.43141 6.90427 16.7301 0.297599 0.143734 0.51108 6.30904 5.2541 9.3317
950 1 Ar 11.2547 6.22427 0.597069 0.171744 -0.43395 -1.01959 2.46789 -0.714159 -16.2637
713 1 Ar 12.1145 7.15618 0.13023 0.19389 0.582058 0.0195947 -4.21771 -5.89286 22.9483
993 1 Ar 13.8381 6.48298 0.44171 -0.325898 0.896054 -0.194765 3.69844 0.185271 -5.12602
193 1 Ar 14.4606 7.43598 0.738643 0.269646 0.581716 1.58292 -7.70359 0.90542 18.0417
960 1 Ar 15.1105 7.54571 1.6533 0.515897 0.251731 0.79073 -10.962 0.694952 4.89336
557 1 Ar 13.7798 6.91696 1.50605 -0.886107 1.26162 0.825028 24.3592 19.4693 5.77428
158 1 Ar 16.5688 7.52348 1.41863 -1.17854 -0.897041 -0.300531 -24.9458 0.677508 -29.2027
605 1 Ar 16.2808 6.37718 0.882184 -0.582582 -0.261696 -0.431297 -9.39077 1.19603 16.5547
3790 1 Ar 15.4466 7.18211 0.672231 -1.14084 -1.19772 0.0728231 18.6699 4.41667 0.953323
597 1 Ar 15.8487 6.83551 1.74652 -0.963625 0.0952952 -0.359768 5.2312 -16.8718 -1.43251
554 1 Ar 16.0327 6.72866 16.7296 1.54815 1.17996 0.402215 4.39821 4.42515 -13.2184
922 1 Ar 1.08263 7.91805 0.360674 0.721599 0.266576 -0.787873 3.90595 -0.572297 -8.57202
201 1 Ar 1.8931 8.62398 0.880634 -0.782356 -0.281529 0.530796 4.19827 -7.84362 -3.46644
3808 1 Ar 16.4283 8.72947 1.68271 0.930651 0.174609 -0.0794131 14.5163 -20.5536 -8.41937
608 1 Ar 0.578512 8.69059 0.905945 0.103302 -0.468974 1.16866 -1.50299 -3.41974 12.4391
167 1 Ar 2.07931 7.90371 16.6716 -0.416875 -0.0574553 1.34489 -9.24008 0.957647 -13.0896
717 1 Ar 2.78265 9.35402 0.482253 1.14959 -0.308229 -0.261738 -1.07412 -4.96976 4.13971
207 1 Ar 2.3763 8.40952 1.90837 -0.664125 -0.927837 0.680414 -6.21628 -1.58358 7.28326
652 1 Ar 4.80573 8.39637 0.524812 -0.143455 -0.948409 -0.0947725 -2.27492 -10.4849 -4.78156
204 1 Ar 3.46286 8.84205 1.3603 1.41227 0.482028 -0.0457637 -23.6963 31.9139 -13.6681
607 1 Ar 2.86257 8.17296 0.504825 -0.211771 -0.0876207 -0.754405 7.69168 7.69007 8.56724
3016 1 Ar 5.76597 7.86184 0.503599 -1.15985 -1.47958 -0.331623 6.19439 19.2919 -3.2625
297 1 Ar 5.59561 9.09274 0.518968 0.213591 -1.03393 -0.421061 5.11891 3.55735 9.5685
220 1 Ar 6.32661 7.39386 1.1938 0.40568 -0.184072 -0.627502 24.6852 2.27088 19.2675
1014 1 Ar 4.55824 8.58383 1.84179 -0.335696 -0.0678955 0.725244 22.0206 -9.20019 2.9271
628 1 Ar 7.43074 8.78763 16.7937 0.649002 0.815897 -0.392643 9.40855 -13.0938 -24.8756
581 1 Ar 6.8533 8.74195 1.82206 0.404708 0.561567 0.624155 21.1448 -21.5361 10.3954
660 1 Ar 6.6409 8.43924 0.728879 0.549693 0.951778 0.95667 -7.97632 6.16206 -3.16562
141 1 Ar 8.95282 8.0183 1.53548 -0.754123 -0.9528 -1.1775 -4.25395 1.08853 -1.56828
224 1 Ar 8.66259 8.78643 16.5536 0.887756 0.817209 -0.8727 -1.50607 17.9357 -0.753223
1018 1 Ar 7.32873 7.86107 1.27875 0.119523 0.147963 1.73232 -0.125596 2.56555 0.605496
623 1 Ar 9.59465 7.24985 1.0647 -0.500811 0.199383 0.222668 -6.52225 1.83593 4.11841
3739 1 Ar 9.46782 8.6835 0.695566 -0.219903 -0.0467596 0.9805 -8.94717 -11.885 -4.34785
3821 1 Ar 9.45003 8.09552 16.436 -1.16474 -0.151602 -0.524647 -4.31083 -10.1674 21.6131
586 1 Ar 10.462 8.84615 1.08221 -0.422386 -0.420767 -0.838228 14.5809 5.507 -15.6954
186 1 Ar 10.4567 7.90712 0.624787 0.054006 0.34522 -0.957827 -21.6901 3.16035 8.14359
152 1 Ar 11.5309 8.95599 0.234167 -0.343539 -1.20021 0.578096 1.02882 1.45305 1.55338
197 1 Ar 13.3471 8.36398 0.264671 0.0885522 0.875667 -0.091239 0.195534 -3.34552 -13.0513
231 1 Ar 11.9814 7.41692 15.9564 1.1568 0.231846 0.0158115 -10.2405 10.8855 -18.1499
195 1 Ar 12.6615 9.2987 0.0451415 0.973275 -0.570942 0.0360386 -11.3593 4.50289 -9.83825
353 1 Ar 12.981 9.05323 0.953285 1.07549 0.812222 -0.258301 3.78882 -2.43369 30.5388
1354 1 Ar 12.4438 8.03025 1.01753 1.45597 0.70923 2.37436 0.684291 -11.0998 -23.2833
3798 1 Ar 15.1214 8.29868 0.9331 -0.000130232 -2.21981 0.301233 -3.94998 4.47405 -10.5727
3439 1 Ar 14.3298 9.03226 1.13955 0.901561 -0.276804 -1.46762 18.9097 10.1267 -8.08128
594 1 Ar 13.7514 8.18563 1.28494 -0.982367 -0.221261 0.329263 -4.60391 -14.2196 0.282744
603 1 Ar 16.1761 8.21782 0.74283 -0.0128442 -0.557846 1.23169 -2.3453 20.3128 28.0306
1117 1 Ar 15.4997 9.1856 1.4147 1.45548 -0.581329 0.00571576 -9.07314 5.66979 -4.7112
279 1 Ar 1.83319 10.0055 16.7691 -0.0610026 -0.218463 -0.897227 1.76651 5.61208 -3.01715
247 1 Ar 2.11211 10.3011 0.99781 -1.40163 0.15407 0.229156 10.6708 -8.8011 -4.30422
649 1 Ar 3.00913 10.2137 16.6666 -0.218762 0.824134 -0.775001 -10.0973 2.94564 1.9168
638 1 Ar 4.27456 9.5123 2.1339 -0.00228669 -0.330598 1.67522 -5.46742 21.1756 -8.43433
217 1 Ar 3.15563 10.1012 1.28467 0.167456 0.959557 1.02181 18.8868 -10.4325 -15.4082
647 1 Ar 3.77146 8.71963 0.221603 -1.47201 1.2629 -0.768248 -1.12791 12.0725 9.10066
1414 1 Ar 4.39921 9.21259 0.984371 1.46432 -0.462042 0.119952 -19.8323 11.548 -12.4799
175 1 Ar 5.16627 9.47605 1.56501 -0.39464 1.04781 -0.299349 27.003 2.66875 9.54732
1051 1 Ar 4.38246 10.6067 1.21778 -0.669828 -0.221458 0.820566 -14.6641 4.38688 -12.0052
655 1 Ar 5.0153 10.0847 0.505935 -0.908792 -0.277031 -0.457193 -9.72655 -7.82088 -0.303936
3904 1 Ar 6.61303 9.48511 0.198068 0.961541 -0.360041 0.494496 -0.0787583 5.60302 2.89923
1059 1 Ar 6.0129 10.4495 2.33092 -1.13546 0.158073 -0.140105 17.374 -3.62633 -0.74809
304 1 Ar 7.42852 9.14071 0.923264 1.2196 -0.346864 1.03195 -9.54241 -27.2145 43.8745
665 1 Ar 7.6699 9.98492 0.523115 -0.393052 -0.751889 0.0303311 44.809 15.5737 -39.4819
3784 1 Ar 8.52648 9.73946 1.03274 -0.873118 0.026923 0.601902 -5.05081 19.8028 -31.8068
3867 1 Ar 8.60838 10.709 0.447475 0.411457 3.00742 0.329704 -1.40696 -3.36756 1.56077
260 1 Ar 8.005 10.545 1.51499 -1.12305 0.553269 0.712883 -8.75882 -0.906752 -1.46147
253 1 Ar 9.74567 9.63545 1.01314 -0.554438 1.40004 1.22364 -6.18762 14.1704 6.2746
3787 1 Ar 10.8323 10.0057 0.988626 -0.627106 0.780752 1.96441 0.35563 -11.5222 -9.26969
669 1 Ar 12.072 9.64151 1.12844 -0.151071 -0.246921 -0.507571 -5.14314 -7.53314 -2.17346
309 1 Ar 12.4251 10.6012 1.33351 0.453292 1.29791 1.56034 8.66269 16.3292 3.60296
636 1 Ar 12.4143 8.52903 1.89064 1.1291 0.243552 -0.430721 -1.3343 13.883 17.9479
271 1 Ar 12.8868 10.3181 0.249349 -0.187245 -0.990751 -0.105194 -23.9547 13.313 37.4749
996 1 Ar 13.3937 10.2354 1.22 -0.834614 0.614434 -0.951144 15.9495 3.36206 -18.2648
194 1 Ar 14.9707 9.71794 0.498204 0.099062 1.28383 0.215089 -8.99692 -1.30932 9.4829
671 1 Ar 15.0045 10.7327 0.124899 0.235352 0.317218 -1.04005 11.0082 -10.4054 6.84339
1073 1 Ar 14.4303 10.4819 1.09047 0.330269 -0.0966853 -0.452813 9.99856 -5.19744 6.59827
273 1 Ar 14.0068 11.0392 0.307642 0.518731 1.32928 0.740409 -11.0002 2.2637 -3.16734
199 1 Ar 16.3402 9.74417 1.73609 0.391379 1.75952 -0.0897943 -0.727792 10.0856 -19.5547
315 1 Ar 15.9431 10.1722 0.145083 -0.150795 0.485634 1.3523 10.7622 -9.22231 -4.05882
634 1 Ar 16.5299 9.2925 0.644962 -1.12129 -1.15816 1.35878 -5.31047 -7.16198 2.0623
241 1 Ar 0.352982 11.424 0.754453 0.26914 -0.062322 0.998688 -5.87627 -37.0969 5.86828
685 1 Ar 1.08793 11.4704 1.58948 -0.436011 -2.08437 -0.830795 -6.10158 11.1258 -2.53945
208 1 Ar 0.0187862 10.7262 16.6243 -1.44594 0.705223 -1.08539 11.4303 1.59869 -0.051494
212 1 Ar 1.31678 11.0611 16.551 -0.852111 -0.0638443 -0.384889 6.64804 -4.79604 -0.976017
648 1 Ar 2.4141 11.3159 0.528901 -1.54182 0.256517 1.2496 -9.18262 -0.976422 -3.39771
245 1 Ar 1.27637 12.003 0.623664 -0.733785 -1.17136 -0.0724187 19.2781 -29.6171 -11.3898
1090 1 Ar 2.12856 11.5312 1.58445 -0.0708756 0.818346 1.17931 16.2221 -10.298 -1.825
689 1 Ar 3.41778 10.9599 0.521527 -0.119838 -0.20004 -0.202074 4.2037 -5.58449 21.465
1056 1 Ar 3.41263 11.467 1.59786 0.401597 -1.1532 1.80167 -12.8666 1.08633 -9.78811
1089 1 Ar 4.39799 11.0431 0.178132 -0.228762 -0.892296 -0.40782 14.2689 0.936115 9.9844
616 1 Ar 4.29898 11.408 2.12083 0.0774795 0.720208 1.1322 -26.4881 -2.11922 -18.6863
691 1 Ar 5.34288 11.1966 0.749469 -0.312349 -1.86011 0.748319 -5.65533 0.89282 3.5279
1417 1 Ar 5.73934 10.3618 1.29901 -1.19125 -0.660926 -0.313835 28.3312 -1.07627 -28.1348
250 1 Ar 4.63515 12.2188 0.0058239 -1.7303 -0.35848 -0.44063 -6.3126 -0.662345 -9.19389
3895 1 Ar 6.62831 11.4778 0.756464 0.450625 -0.365683 0.712277 -21.2088 -14.6868 -12.6721
259 1 Ar 6.86777 10.3796 0.872206 -0.664625 -0.537419 -0.109841 -47.5573 15.1846 18.854
1455 1 Ar 6.06442 11.4871 1.79965 -1.18005 -1.94411 0.363623 -1.55187 -6.16514 -11.6139
1422 1 Ar 7.25247 9.78032 1.74764 0.262066 0.275164 -0.783225 9.39594 9.4468 -4.34216
232 1 Ar 8.42655 11.5208 1.14529 1.00346 0.936074 -0.30142 15.6419 -7.56385 7.33201
302 1 Ar 7.20011 12.0251 1.35115 1.71457 -0.637559 0.142184 7.29292 9.66715 9.50994
300 1 Ar 7.64654 11.0795 0.662421 0.531717 0.129129 -0.750739 -16.5713 5.94807 -9.71051
668 1 Ar 9.6608 10.6556 0.590163 -1.17472 -0.249972 2.17497 10.4129 -14.2339 -3.92856
626 1 Ar 10.6296 11.0875 1.02824 -1.40336 -0.566031 0.0973255 5.62459 0.935056 -2.8449
3832 1 Ar 10.2699 11.8068 0.137437 -0.670909 -2.0134 -0.431233 3.94503 -8.65783 -3.4475
1461 1 Ar 9.62564 11.4416 1.25423 -0.414685 -1.04021 -0.288804 -2.83391 8.55825 1.96015
3866 1 Ar 11.6908 11.7209 0.227939 1.19552 0.933607 -0.0579648 -11.7853 9.59506 12.9884
1070 1 Ar 13.1193 11.5834 1.81348 -0.0448586 -0.986541 0.147473 -0.675661 0.356159 10.3108
270 1 Ar 14.0624 11.4776 1.37481 -0.120241 1.07867 0.908892 -0.417741 -3.6657 -7.23383
351 1 Ar 13.0682 11.33 0.815152 0.303258 -0.80319 -0.434428 0.570897 -5.64431 -10.6649
3876 1 Ar 15.5551 12.263 16.1834 -0.107959 -0.27218 0.667061 -16.7122 6.86394 -7.51104
360 1 Ar 14.8564 11.7573 16.7685 -0.921615 0.666197 0.547474 2.25369 1.48475 -8.55907
3884 1 Ar 15.0771 11.4925 0.978085 -0.0934422 -0.889226 -0.19658 5.1894 -1.28308 1.63327
275 1 Ar 15.9463 11.2693 16.7384 -0.442226 -0.130853 -0.175995 -13.0633 10.5299 3.79026
321 1 Ar 16.1905 11.8925 1.16124 -0.573658 -0.494241 0.917478 4.41297 -1.74576 -10.812
726 1 Ar 16.3179 12.5669 0.00180099 0.802951 -0.119361 -0.413396 -7.83963 0.976294 -7.91086
687 1 Ar 15.5713 10.4297 1.04975 -0.629167 0.914464 2.00691 -3.49689 6.98947 24.0272
288 1 Ar 0.373594 12.3776 0.531424 0.428406 0.727453 -0.259699 -3.16406 6.24409 -9.36326
368 1 Ar 0.254968 13.355 0.26524 -0.19337 0.532345 0.675122 44.0472 -3.06191 2.01914
692 1 Ar 1.62877 13.1443 0.465896 1.22805 -1.14641 -0.260088 5.17263 9.93272 6.39454
686 1 Ar 3.01746 13.1242 1.17735 -0.534783 0.818318 0.560384 0.31035 -7.52202 -1.35876
361 1 Ar 2.18756 14.1052 15.8762 0.17908 0.864814 -1.50692 6.90211 8.00017 -0.45009
725 1 Ar 1.77469 13.2647 1.75044 0.423333 -1.06414 0.333671 -18.0066 52.9346 11.1492
3925 1 Ar 2.56216 14.9826 0.334398 0.678527 1.46469 -0.728182 -1.97081 15.12 -12.6739
762 1 Ar 3.73846 13.9376 0.773365 0.23264 -0.108056 -0.306126 -10.6691 -2.68014 -3.59566
690 1 Ar 4.36397 11.7983 0.898186 -2.10782 -1.87053 0.102106 -11.7101 -14.6821 22.5852
650 1 Ar 5.7381 12.0753 0.29601 0.924036 -1.17319 -0.876564 8.02852 -9.53803 -15.9957
1456 1 Ar 3.87584 13.2572 16.705 0.895072 -0.646225 -1.19588 3.61353 -2.72642 -2.51456
332 1 Ar 5.15562 13.6372 0.139619 0.702398 0.202977 2.02282 -5.02477 -19.2209 2.03079
730 1 Ar 4.43419 12.8349 0.838095 -0.963505 0.275075 0.00882769 11.7517 28.3792 -14.2338
1094 1 Ar 6.00267 12.9913 16.6721 0.985887 -0.656615 -1.33328 2.43716 12.0733 -1.68153
3900 1 Ar 6.27589 12.5962 1.10991 -0.140575 0.0585604 1.32976 19.2456 -13.13 12.1531
339 1 Ar 6.5991 13.712 1.41297 1.14196 -0.653498 0.0428871 -2.13045 -5.0759 24.7203
295 1 Ar 7.96612 12.2105 0.478304 0.565948 -1.52943 -0.500133 -0.00869697 -1.94767 -4.92446
296 1 Ar 7.73085 13.1956 0.899458 -0.105148 -0.207101 -1.54211 -14.6707 -3.36258 0.34324
305 1 Ar 8.50621 13.8352 0.64194 -0.919794 0.484825 0.946741 6.89691 4.66547 -2.9817
1538 1 Ar 8.06984 12.5139 1.61971 -0.280463 -0.498741 -1.40724 17.104 5.47921 9.3591
662 1 Ar 10.8417 12.2637 0.911796 0.461382 -1.14902 0.27435 6.85739 1.20869 0.239257
707 1 Ar 11.3915 12.4468 1.87359 1.17723 1.30285 0.747109 0.876703 -2.36133 -4.86998
747 1 Ar 9.35934 13.2728 1.26176 -0.44593 0.875714 1.01392 3.3724 13.303 8.71497
3941 1 Ar 10.9771 12.4747 16.4875 0.00905418 -0.0571378 -0.0817136 -1.10005 2.44954 -3.73898
3512 1 Ar 11.8818 11.6385 1.32892 -0.634049 0.32527 0.653651 3.68187 -5.54371 2.28389
749 1 Ar 11.7576 13.6021 1.47121 -0.815268 -0.224225 -1.65053 -3.70562 1.9806 -33.908
346 1 Ar 11.1272 14.4387 0.750161 0.75175 -0.704693 0.0743928 4.51335 -12.3692 34.793
385 1 Ar 12.0038 12.7968 16.432 0.023826 0.339157 -0.0464461 4.7057 1.55845 3.24197
354 1 Ar 13.4247 13.2199 16.6779 1.29647 0.515028 0.858668 2.98397 8.32613 -0.261914
387 1 Ar 11.9592 12.6553 0.865562 -1.22507 -0.0122797 0.147534 -64.0187 -43.9654 13.5645
3912 1 Ar 13.5077 13.2394 0.897013 0.196541 -0.558027 0.686419 10.6868 8.62502 12.7556
3591 1 Ar 13.9878 12.1368 0.372012 1.78525 0.533705 -0.153124 -16.0998 6.00999 7.00835
3959 1 Ar 14.6869 12.9019 0.0137693 -1.10448 -0.22917 1.1484 -37.6699 8.97961 -20.8827
670 1 Ar 14.5239 12.407 1.39755 0.236575 0.975935 -0.375211 5.52375 4.42877 -5.47469
356 1 Ar 14.2779 13.3987 1.77327 0.278435 -0.546562 -0.636374 -0.942468 4.40121 4.23869
3924 1 Ar 14.8259 13.8504 0.983938 1.65913 0.68642 0.645901 -7.55514 4.14602 -7.96332
318 1 Ar 15.3132 12.6059 0.684355 -0.350184 0.110788 -0.643737 36.7881 -13.4789 29.7929
282 1 Ar 1.60967 15.2166 16.6827 -0.124377 -0.386774 0.269676 21.6232 1.3034 -2.40401
758 1 Ar 0.0957852 14.6181 0.694577 -0.075429 0.578926 1.01019 -3.17817 -2.00558 1.22749
1171 1 Ar 1.0526 13.8656 1.1082 -0.478761 1.20138 0.959171 -2.02306 -1.50146 0.0468421
365 1 Ar 1.1944 14.9479 1.03838 -0.764641 0.313307 -1.81163 -15.5471 14.6288 -27.9462
3 1 Ar 1.78608 14.2174 0.268788 1.7196 -1.38741 -0.0906871 -2.33319 -3.51819 -1.00465
17 1 Ar 3.79236 14.6643 1.67343 0.738593 -0.0534192 0.725626 16.5616 21.1679 -8.69935
376 1 Ar 4.0882 14.9306 0.304341 0.345829 1.44988 0.715361 17.9143 -39.9738 24.858
736 1 Ar 5.16835 14.6472 0.192397 -0.35313 -0.114257 -0.298546 -13.3605 17.2161 20.4453
3580 1 Ar 5.60875 14.4709 1.20223 -0.984746 0.667034 0.547807 -0.430906 18.4638 12.9546
694 1 Ar 6.26125 14.0461 0.560727 -0.0145072 -0.00885288 -0.371099 12.0148 16.0468 -42.7154
3940 1 Ar 7.06297 14.7867 0.891341 -0.432673 0.184591 -0.607047 -21.4952 0.790071 1.46035
3981 1 Ar 7.31317 13.9919 0.275059 1.1817 -0.602755 0.747592 8.18855 -7.75053 -7.26311
337 1 Ar 8.04593 14.7896 1.11728 0.378875 2.18538 0.640571 22.8014 4.44579 1.94805
698 1 Ar 7.55417 14.0056 1.66099 0.0720583 -0.500277 1.35223 -4.20793 4.0144 -25.7022
308 1 Ar 8.86721 14.7448 0.112177 -0.421881 -0.0683392 -0.487908 5.64552 -6.14023 -10.5721
746 1 Ar 11.2555 13.442 0.274666 1.1484 0.971431 0.39209 3.75828 -10.3819 6.51445
381 1 Ar 12.5592 15.2336 16.4759 -0.147653 0.527707 -1.48388 -8.68858 -21.3893 18.3463
352 1 Ar 11.623 15.0549 1.54069 -0.429024 0.136265 1.177 -0.528112 -8.20014 -16.6005
350 1 Ar 12.4385 14.4357 1.01508 0.0618424 0.440396 -0.118373 2.63333 -18.3956 10.9243
3950 1 Ar 13.8598 14.3244 1.50653 0.100356 -0.654714 -0.349232 7.61635 -5.54345 -3.09664
39 1 Ar 14.9729 14.9412 1.24466 -0.701337 0.0308277 -0.780866 5.49089 -15.6793 27.1321
681 1 Ar 13.9972 15.4505 1.5508 -0.195007 -0.573562 -0.606267 6.25456 -44.0643 -33.0578
317 1 Ar 15.8738 13.9058 0.996628 -0.260542 1.12776 0.153695 12.4773 0.819051 -5.24032
357 1 Ar 14.8075 14.4293 0.0307123 -0.537516 -2.13054 -0.41353 6.85096 -19.7264 -8.72301
1078 1 Ar 15.44 14.2553 1.99079 -0.601023 1.50065 0.261224 -8.83724 1.90811 3.65147
724 1 Ar 15.712 14.756 0.419122 -0.293454 -0.0464775 0.635136 15.241 -6.59633 11.5316
3607 1 Ar 16.6047 15.3862 16.6033 1.70916 -0.243267 -0.904938 8.27368 -2.07677 6.56267
45 1 Ar 0.54382 16.6473 0.86088 -0.571322 0.785762 -0.296 -11.2372 48.9292 0.651101
761 1 Ar 3.0944 16.4871 0.378055 -0.120636 0.37238 -0.416571 28.9904 26.2498 33.0323
49 1 Ar 2.17459 15.8557 1.17213 1.32418 0.519981 0.0844848 -12.1845 11.3091 -15.2514
364 1 Ar 2.56123 15.9987 16.5422 -0.558998 -0.994464 0.236828 -20.769 -25.7003 -31.6454
3929 1 Ar 1.94105 0.905626 16.4744 -0.812766 2.03148 -1.19677 10.6895 -17.4141 4.3108
459 1 Ar 3.2761 15.5032 0.896114 0.148807 0.235059 1.58318 -8.62936 -7.86195 -4.02017
374 1 Ar 4.08366 16.0421 1.15372 -0.361955 0.180083 0.270959 4.89148 14.1404 6.96207
3971 1 Ar 4.66989 15.7558 16.756 -0.27425 0.885169 0.836232 12.7536 1.31381 6.07001
3977 1 Ar 6.0585 16.5078 1.73196 0.770529 -0.550942 -0.791256 -2.66691 -8.18395 -2.38312
380 1 Ar 5.11832 16.2079 1.08965 -1.04827 -0.0936113 0.411917 6.80753 8.72293 -8.89405
740 1 Ar 6.15276 16.4527 0.617256 0.705111 -0.354064 -0.121086 0.840519 5.64059 -2.92503
336 1 Ar 4.74208 15.1958 1.19866 0.536302 -0.395216 -1.10822 2.92195 -8.0866 -1.83629
3939 1 Ar 5.90218 15.5786 1.19281 0.515979 0.859175 1.9766 -11.9961 -23.3189 9.45795
460 1 Ar 7.18053 16.7369 0.859841 -0.0707989 -0.390239 -0.350318 -6.56887 2.00529 -15.6781
733 1 Ar 7.33631 15.8072 0.315237 0.148745 0.943058 0.0435819 -18.5607 20.3215 10.0844
3575 1 Ar 6.87857 15.7016 1.36332 1.03822 -1.01399 0.0591642 -2.75882 8.86649 5.06592