ITEM: TIMESTEP
8800
ITEM: NUMBER OF ATOMS
4000
ITEM: BOX BOUNDS pp pp pp
0.0000000000000000e+00 1.6795961913825074e+01
0.0000000000000000e+00 1.6795961913825074e+01
0.0000000000000000e+00 1.6795961913825074e+01
ITEM: ATOMS id type element x y z vx vy vz fx fy fz
446 1 Ar 1.32018 2.22396 16.6991 1.00631 -0.463518 0.0623934 6.88882 3.75641 -13.8431
3966 1 Ar 16.6548 0.716053 0.0309347 0.721144 0.782226 0.816702 9.80091 4.56335 2.71763
798 1 Ar 0.959452 1.44749 0.608868 -0.773533 -0.493686 -0.0499453 0.523217 -2.4838 -2.34085
91 1 Ar 3.41414 0.460555 1.37194 -1.05861 -0.0853642 -0.697591 4.58815 -0.402057 5.5571
12 1 Ar 1.49711 0.576214 1.02888 -0.160764 0.857358 -0.418429 -7.07713 -11.274 -14.5809
46 1 Ar 2.41693 0.185371 0.630349 -1.51367 0.0985126 0.652972 -1.94458 0.227955 15.8015
412 1 Ar 0.999644 0.537234 -0.00287366 -0.727643 -0.782249 -0.584459 -5.84423 -1.13297 10.4041
489 1 Ar 2.98053 1.10866 0.652736 0.334469 0.60026 -0.839678 0.816247 9.45511 -6.28377
1133 1 Ar 4.97855 0.47756 1.80428 0.376136 -0.0406191 0.532875 17.8361 -14.9176 9.26354
457 1 Ar 5.36024 0.85029 0.828633 0.243307 1.38999 0.313068 1.82463 3.62587 3.80339
500 1 Ar 4.18777 1.38556 0.310372 0.973062 -0.262226 0.0613098 -8.90486 7.57256 1.13894
334 1 Ar 7.49672 0.711643 1.57492 -0.587597 -0.56301 -0.394095 2.47241 0.747809 12.484
780 1 Ar 7.3011 1.06667 0.620811 -0.217002 0.660447 0.171058 31.8531 -10.6595 -22.9725
15 1 Ar 6.21684 0.909318 0.0729755 0.746905 -0.722704 0.645283 -35.8577 -10.655 7.37333
383 1 Ar 8.22596 0.382209 0.341322 0.491343 -1.01558 -0.365826 0.0613761 -10.1655 -10.8577
384 1 Ar 8.79166 0.122989 16.1845 -0.466878 -0.799351 -0.905216 1.90751 14.0082 22.5162
3944 1 Ar 9.42554 0.774452 1.31125 0.0626163 0.846749 -1.16341 -17.8934 -5.79672 -9.02432
3627 1 Ar 9.2787 1.42237 0.266606 0.603006 -0.790404 -0.376907 7.96465 -0.294347 7.89887
505 1 Ar 10.0223 0.404943 0.36803 1.0202 -0.192787 0.579227 11.4149 5.51154 -13.4521
379 1 Ar 9.15055 2.04667 1.15692 0.232006 -0.982876 -0.0760418 23.2053 -36.7669 -5.459
474 1 Ar 11.0574 0.466405 1.17464 0.91221 0.537714 -0.351369 -7.09001 -10.0826 2.12138
21 1 Ar 10.2124 1.29029 0.907979 1.49155 -0.478819 1.87662 12.8918 14.9983 10.8005
71 1 Ar 13.0661 1.94495 0.220743 0.0541953 0.286178 1.1183 16.4666 -28.503 17.7983
109 1 Ar 13.767 0.737045 2.07979 -0.0975653 1.06401 -0.642298 0.981748 3.07051 -3.55483
388 1 Ar 12.4059 0.697019 1.37621 0.13608 1.03863 -1.13906 6.66965 -10.3587 -10.1396
3991 1 Ar 12.3955 1.03245 0.316014 0.327802 -0.660389 0.588566 -7.98138 1.77719 6.63944
429 1 Ar 13.5592 0.276927 1.0521 -0.167011 0.27571 -0.25581 3.62264 31.1382 1.30255
79 1 Ar 15.233 0.902445 0.523553 2.00742 -2.52709 -0.153831 19.6973 -8.77488 -5.07185
33 1 Ar 14.2564 0.344101 0.224072 -0.932641 -1.64839 -0.771759 1.22547 -38.9345 39.8304
795 1 Ar 14.7684 0.455052 1.49479 0.663134 0.65761 -0.401102 -5.51241 10.3763 -6.18256
438 1 Ar 15.7632 1.44317 1.69945 -0.665335 0.103019 -0.0407272 -2.16453 -12.3427 -5.90131
764 1 Ar 16.2927 0.597269 1.08507 -1.53905 0.0787992 -0.168427 1.48426 0.939218 1.99206
439 1 Ar 16.5225 1.56241 2.44331 0.244909 -0.374504 1.36875 -1.09078 -9.91625 -10.4523
441 1 Ar 0.325002 1.91293 1.32603 -0.665528 0.200621 -0.484728 -5.42122 3.77866 5.01253
84 1 Ar 1.20245 3.37149 16.5495 -0.224008 1.52521 0.548099 12.5821 -43.4768 0.768192
442 1 Ar 2.37244 2.166 0.421175 1.07038 -1.25871 -0.677404 2.61324 -3.12067 2.69044
487 1 Ar 2.64452 2.42371 1.49596 -1.41321 -0.370967 0.172953 5.95006 -14.3321 -33.0819
1170 1 Ar 3.4773 2.19481 0.054992 -0.189482 -0.616807 0.349835 -0.595613 2.19169 -1.39778
811 1 Ar 4.23434 1.13833 1.66907 1.13841 -1.23338 0.303424 -15.6416 12.9576 -3.10068
413 1 Ar 3.88463 2.05417 1.05677 0.0611574 0.773097 -0.232875 -5.2963 -1.49769 9.15022
1134 1 Ar 3.11594 3.15805 0.738439 0.322865 0.196723 0.549403 -0.294095 0.643125 -0.0163884
375 1 Ar 5.00209 2.38677 1.17254 -1.10139 1.54307 -1.67565 -4.69519 -5.95045 -2.23815
95 1 Ar 6.58467 1.62668 1.02622 -1.05243 0.286983 0.0183778 -19.3929 6.24838 -14.5229
64 1 Ar 7.64512 2.059 0.971225 -0.610977 1.79987 1.07719 -2.94195 -0.203147 6.70115
133 1 Ar 5.84287 3.03761 1.14312 -0.752355 0.76927 0.5149 -5.98896 33.4728 -10.4399
898 1 Ar 6.53277 3.88112 1.20465 0.0877985 0.41594 0.694454 10.7059 1.21193 1.16664
58 1 Ar 8.4703 1.20099 0.905802 -0.835849 -0.305837 0.522435 -6.99369 7.45774 18.2731
432 1 Ar 11.2942 3.01822 -0.0117723 -0.270736 0.459456 -0.226448 -0.616957 -18.0647 12.7462
97 1 Ar 8.99531 2.47915 0.1824 0.157279 0.0628308 0.109848 -12.1097 6.5488 3.39687
25 1 Ar 11.0912 2.00276 16.3053 -0.620713 -0.153893 0.284141 8.22692 15.3015 -2.43225
912 1 Ar 11.0203 2.32108 0.848447 -0.172402 -0.507556 -0.35776 6.19598 6.60028 1.20993
73 1 Ar 12.0254 2.95114 1.03358 0.11938 -1.11635 -2.52787 -12.7517 28.1449 31.5888
469 1 Ar 13.2609 1.41241 1.12038 0.242695 -0.354794 0.827659 16.6673 -14.8651 1.47826
513 1 Ar 13.5982 2.92365 0.475564 -0.491564 0.162768 -1.14231 8.59816 -15.1896 -20.5931
31 1 Ar 12.0045 2.19758 0.432038 -0.771068 -0.662258 1.21946 -11.1826 -24.8098 -5.57839
36 1 Ar 15.3328 2.18447 0.888094 -1.1282 -1.01202 -1.58433 7.05403 -10.817 -0.992221
3674 1 Ar 14.4556 3.56681 0.586246 0.280182 0.74127 0.442602 -27.2527 40.8181 47.6448
3716 1 Ar 14.3228 2.48262 1.03815 -0.148626 -0.510866 -1.63804 6.35619 5.86992 8.0406
35 1 Ar 14.5432 1.46011 1.00017 -0.528524 0.432004 0.0949185 -16.8803 -0.937321 8.5855
434 1 Ar 16.2693 1.66941 0.487647 -0.752913 -0.313545 -0.0502967 -4.96333 -0.968015 1.28041
42 1 Ar 15.9187 2.92127 0.402131 -0.506917 0.339581 0.493424 18.337 -9.70244 -4.75797
115 1 Ar 15.347 3.15908 1.27313 0.618073 -0.905383 -0.665343 -14.5791 -6.65282 -5.63936
523 1 Ar 0.284811 3.35744 0.516481 -0.313954 0.31023 -0.86227 9.11165 3.93127 -4.72318
124 1 Ar 0.361023 3.99706 1.60945 -0.140179 -0.653167 -0.431846 -9.12043 -6.59884 -16.615
3724 1 Ar 16.7972 4.48567 0.533133 1.15054 0.0685457 0.135875 9.48115 1.07603 1.17994
48 1 Ar 1.13362 4.17724 0.715959 -0.251952 -0.499533 0.150742 -8.08924 -7.38686 -0.166851
452 1 Ar 1.94838 3.37033 0.888044 -1.02642 1.11344 0.276303 3.0318 -6.00414 1.90843
92 1 Ar 2.96978 4.27604 0.23952 -0.321449 -0.157613 0.224496 -3.01218 -9.45256 8.42935
530 1 Ar 4.14874 3.04254 1.28683 1.47901 0.840539 -1.5261 1.14695 8.16396 -2.44904
893 1 Ar 3.0748 4.19952 1.47109 -0.213868 -0.456952 0.349519 -4.91769 -3.54758 -3.21018
3692 1 Ar 5.75143 4.5448 0.741578 -0.391718 -0.0709523 2.29962 -0.245131 -0.0318891 -5.28227
3731 1 Ar 3.96467 3.96754 0.608752 0.987648 -0.503065 -1.68636 -3.99009 -3.26866 -15.2754
3653 1 Ar 5.26349 3.0426 2.21982 0.460814 0.0141882 -0.201032 -0.733871 -32.0876 -8.2197
894 1 Ar 6.48873 2.61055 16.5553 0.190058 -1.1233 -1.08054 19.7655 8.73854 -19.68
3657 1 Ar 7.08745 3.74508 16.6092 0.934432 -0.947124 -0.302322 14.5844 1.05983 10.1883
90 1 Ar 6.97497 4.70474 0.471982 -0.0501454 0.403958 -0.288814 13.3255 -23.0149 11.2593
136 1 Ar 6.15346 3.49138 0.278611 -0.570608 0.314922 -0.145341 1.81651 13.6203 -5.79303
20 1 Ar 7.33417 3.05521 15.8492 -0.903792 -0.0850517 -0.0671151 -14.7154 3.68321 -8.32682
3695 1 Ar 8.46624 2.70301 1.3191 -1.60802 0.679298 -1.66393 -36.8268 29.4126 10.1161
100 1 Ar 10.0311 2.57053 0.794423 0.955276 -0.173143 -0.0300979 -14.4203 5.17493 -6.37817
538 1 Ar 8.73426 3.73202 1.18657 -1.25389 -0.197711 0.591626 13.299 5.80531 -8.25132
974 1 Ar 7.926 4.13844 0.653127 -0.830905 -0.933672 0.114358 -11.1177 -7.21731 -5.83955
68 1 Ar 10.0518 3.95037 1.51204 0.704084 0.607837 0.278869 2.19221 10.1543 6.37881
135 1 Ar 10.3099 3.61331 0.230484 -1.33554 -0.823519 0.209824 2.9253 -2.07908 0.686219
102 1 Ar 9.34579 5.47466 16.6479 -1.49022 -1.34415 0.756088 5.21354 4.73496 7.18909
106 1 Ar 11.1377 3.59452 1.07139 0.766953 0.434667 0.296147 -24.9395 -11.5813 -6.02849
506 1 Ar 11.1666 4.46648 0.324717 0.120907 -0.346924 0.679864 -9.68882 9.43411 3.35003
66 1 Ar 11.9033 3.7583 0.237617 0.0580947 -0.163115 -0.530906 6.63438 0.375864 9.7202
3671 1 Ar 12.788 3.80479 16.5341 -0.766647 -0.800991 0.37125 8.54562 -3.30019 -3.37526
3747 1 Ar 12.8621 3.48246 0.804274 -0.0351097 -0.739175 0.773457 -19.695 29.2519 2.6337
146 1 Ar 13.7271 4.30427 0.313857 0.403169 -0.00728467 -0.604428 0.452868 -0.284517 -12.4343
155 1 Ar 12.4878 4.59934 0.421709 1.02744 0.529256 -0.987675 -0.313557 -0.791417 -7.25713
3714 1 Ar 15.2397 4.23279 1.33292 -0.754694 0.201443 0.727829 -29.4234 10.1242 9.49838
150 1 Ar 14.6648 5.00527 0.517615 -0.193288 -0.694303 -0.382069 4.16853 -4.20087 -2.53754
402 1 Ar 16.3329 3.41081 1.26408 -0.499472 -0.129309 -2.06163 19.8494 2.6704 -10.1551
3642 1 Ar 15.5037 3.86847 0.428815 1.06367 -0.36193 -0.0712517 2.71313 9.26302 -12.6127
524 1 Ar 0.866354 4.73422 2.07096 -0.227689 -0.40107 0.0211428 13.6696 13.392 8.0446
123 1 Ar 0.614624 6.52912 1.25443 0.789346 0.425775 -0.014564 24.4434 -18.5638 -0.669483
200 1 Ar 0.184526 5.43786 1.3292 -0.0658167 0.346278 1.57574 9.31112 -6.48063 -7.4437
163 1 Ar 0.82195 5.14233 0.383962 0.468262 0.586271 -0.372061 -11.2074 -2.06523 -2.77178
3725 1 Ar 1.23617 5.04135 16.034 -1.22239 -1.94854 1.16579 -10.4843 -10.795 15.2874
522 1 Ar 3.29057 5.23069 1.44401 0.996988 -1.26867 -1.17293 -1.73973 -6.52483 -6.8235
173 1 Ar 1.56772 5.82754 0.322866 0.171423 -1.21764 0.266082 0.593394 23.0969 -2.6463
526 1 Ar 3.15193 5.98083 16.6994 -0.542731 -0.892193 1.12691 -2.52444 5.39286 0.773019
129 1 Ar 4.41971 5.10981 1.15167 -0.545234 0.603283 -1.08726 -5.47657 2.08876 9.08852
3732 1 Ar 3.68418 6.00207 0.873486 1.76135 -0.321159 -0.724677 1.58853 24.8805 3.23575
174 1 Ar 4.63621 6.22197 1.39582 -0.0624633 -1.13808 1.12028 -5.27428 1.55627 20.8766
130 1 Ar 5.6257 3.92799 1.78632 -0.0230435 1.39887 0.262412 -2.25348 13.8315 -10.4002
178 1 Ar 4.09657 5.60134 2.25381 -1.15945 0.582448 1.48644 10.4433 -7.92858 -19.9224
3296 1 Ar 5.3681 5.62291 1.01278 -0.410319 -0.0635297 -0.990592 14.4411 -6.72918 -12.3291
3735 1 Ar 6.4159 5.52912 0.398882 1.22419 0.204314 0.563435 -16.0412 -3.49268 3.09885
3740 1 Ar 7.83983 5.19477 0.678007 0.413192 -0.972344 0.0637391 16.5051 20.0987 2.16782
219 1 Ar 8.55036 6.10476 0.555576 1.09374 0.260191 0.705685 26.9121 -17.4488 -1.2828
977 1 Ar 7.17214 4.77391 1.46729 -0.715757 0.44341 -0.270756 -30.8302 35.6905 -65.478
180 1 Ar 9.0069 5.20309 1.10423 -2.1161 -0.427556 -0.0964465 -14.6877 0.891104 -4.76424
3704 1 Ar 10.1389 4.6139 16.4836 1.16982 -1.0491 -0.0199337 -0.250034 0.893128 -2.52697
94 1 Ar 10.5958 5.68568 0.294475 -0.643982 0.747742 1.98617 -5.60018 -7.85667 -6.79785
494 1 Ar 9.65972 4.42855 0.666515 -0.414901 0.759163 -0.219945 0.34874 2.34986 -4.09714
181 1 Ar 10.2698 6.27463 16.2089 -0.331105 0.346048 -0.490466 -12.3895 -2.91612 20.8057
148 1 Ar 11.555 5.31247 1.14731 -0.11825 0.280196 0.403167 1.56372 -3.45602 -12.9341
191 1 Ar 11.8337 5.47155 16.7956 -0.320857 0.349955 0.274471 -4.05557 -20.8725 -4.07458
190 1 Ar 14.0325 5.63103 16.5671 0.043283 -0.977154 0.0488272 26.7402 11.095 0.632933
989 1 Ar 12.491 6.15576 0.403171 0.768871 -0.669823 0.161859 7.45984 13.4237 5.21536
196 1 Ar 13.2843 6.41767 1.4278 -0.267177 0.394602 0.149871 -18.032 -12.0296 -15.0414
81 1 Ar 15.4461 5.42156 1.29998 0.269178 -1.42503 -1.287 -42.9391 8.66862 -0.421208
151 1 Ar 13.9281 5.58687 1.05892 0.394641 -0.0112001 1.46113 -1.38749 -1.22666 5.47437
559 1 Ar 14.6376 6.41072 1.31266 -0.643325 1.44251 1.0751 1.37347 -5.32469 5.53005
120 1 Ar 16.152 4.67664 1.27315 0.569892 0.798613 0.0251368 12.1169 -10.7838 24.7391
561 1 Ar 16.1607 5.64835 1.9663 -0.802371 -0.479058 0.609747 -2.66224 7.13554 -20.7895
564 1 Ar 16.7708 6.61579 2.0253 0.589057 0.0203145 -0.935912 -15.088 1.27492 1.15535
126 1 Ar 1.07827 6.9543 0.219457 -0.623333 1.04671 0.333406 -0.352079 8.70725 21.6388
3758 1 Ar 1.2557 7.53204 1.21301 0.22156 -0.995015 0.828075 -12.7847 -3.77922 3.26257
1010 1 Ar 2.26451 6.52776 16.0771 0.0127035 -0.880004 -0.872688 -6.93032 -9.72479 -0.384294
965 1 Ar 1.67313 6.4983 1.29374 -0.632689 0.338199 1.27477 -11.7431 -10.8346 -11.033
157 1 Ar 2.4868 6.38833 0.661008 1.43184 1.52445 -0.567594 0.662653 -20.1291 3.8084
211 1 Ar 3.24553 7.0173 1.03996 -0.525417 0.694873 0.769439 -16.7595 -3.53192 -23.6645
243 1 Ar 2.73088 7.13502 0.0072783 1.00346 0.00113978 -0.623214 4.68955 16.4251 6.44074
606 1 Ar 4.01556 8.24802 1.16468 -1.81606 -0.329667 0.459893 -6.03781 5.39798 15.1346
653 1 Ar 4.3399 6.82551 0.620453 0.209758 -0.800293 0.0807577 5.55577 4.721 -9.45721
569 1 Ar 4.89312 7.75712 1.3824 1.57977 -1.39829 -0.954887 15.2844 -15.1716 -2.96091
3375 1 Ar 5.93186 6.22412 1.77202 -0.159354 -0.291312 0.404037 1.28333 -15.6958 9.79388
3779 1 Ar 6.52497 6.55703 0.336018 -1.04645 0.175183 0.0507279 -2.78305 28.6561 -18.8186
1019 1 Ar 8.09533 6.68101 1.49545 0.285907 0.346268 -0.433711 -12.8253 20.5355 -13.6612
3859 1 Ar 7.35974 7.44505 0.600471 -0.639805 0.238608 0.0930911 33.6425 -36.9917 46.0275
215 1 Ar 7.62146 6.4091 0.51696 0.34397 -0.227127 0.775912 -29.8255 -2.63559 6.07883
183 1 Ar 8.49044 7.16837 0.537227 -0.124769 -0.526749 1.10831 1.46204 -7.78657 -4.1523
544 1 Ar 9.55262 6.1339 0.839892 -0.916573 -0.792754 0.673961 12.235 -6.71572 5.50562
3836 1 Ar 10.4289 6.71545 0.535751 0.368559 -0.70093 -0.227358 -21.532 25.9055 -71.2142
3384 1 Ar 9.38612 6.6977 16.8124 -2.26155 -0.586501 2.356 0.253647 -3.67857 -0.0307197
950 1 Ar 11.4595 6.24829 0.511319 0.0389879 1.30468 -0.0185106 -9.03768 23.3611 0.102083
713 1 Ar 12.2517 7.14204 0.201977 -1.17447 0.675487 -0.308921 -11.0931 8.10962 -0.637109
993 1 Ar 13.9904 6.56938 0.507404 0.0253575 0.303846 1.36546 -6.86125 1.98651 -8.42903
193 1 Ar 14.623 7.43916 0.939834 0.386859 0.00565005 -0.374914 -6.85288 -2.70091 -5.30831
960 1 Ar 15.4237 7.60363 2.18005 -1.03775 0.135618 1.05804 -4.75102 -4.31945 4.48505
557 1 Ar 13.7574 7.28675 1.62878 -0.637431 -1.74037 -0.276565 16.1254 5.73925 16.4493
158 1 Ar 16.1981 7.38867 1.53127 -1.41884 -0.704363 -0.107941 15.9685 -0.819388 -3.79506
605 1 Ar 16.3448 6.27289 1.05559 -1.19496 0.288716 0.753715 7.83685 3.83091 -2.31985
3790 1 Ar 15.6751 7.04318 0.672886 0.583891 0.0882507 0.698481 -5.52758 2.21865 -5.53712
597 1 Ar 15.606 6.54131 1.7105 -0.178387 1.34568 -0.309181 -6.77854 4.06574 12.8651
554 1 Ar 16.0172 6.67268 16.4963 0.439611 0.769229 -1.16164 -16.8497 26.3833 20.8487
922 1 Ar 0.944845 8.01472 0.046696 -0.167535 -1.12291 0.674244 9.30893 -6.46578 9.34098
201 1 Ar 1.86298 8.3763 0.837741 -1.16299 0.9785 -0.838487 -7.96247 11.3 -3.50425
3808 1 Ar 16.4049 8.38912 1.82048 0.255475 1.04709 0.712043 -3.67744 8.34058 1.39143
608 1 Ar 0.548402 8.31257 1.0925 0.39258 -0.588373 -0.674206 19.388 -19.351 4.9749
167 1 Ar 2.03228 7.98798 16.4134 0.251615 -0.772849 0.680607 -6.4792 -0.884801 15.2835
717 1 Ar 2.73586 9.40171 0.255338 -0.549668 0.222463 0.655696 -8.98772 -8.74788 4.2316
207 1 Ar 2.44879 8.5268 2.17677 0.510357 1.22428 0.537677 -4.24225 -6.66995 23.4735
652 1 Ar 4.80689 8.45545 0.211837 0.0107394 0.453882 -0.0447489 -8.59754 -5.25892 18.3108
204 1 Ar 3.49435 9.12695 1.28647 -0.707776 -0.877429 -0.195023 -10.5413 6.71227 1.10498
607 1 Ar 2.94622 8.29255 0.753055 0.381934 -1.85383 0.956147 0.511727 0.528307 0.982387
3016 1 Ar 5.62296 7.84829 0.523769 0.76572 -0.576325 0.757643 5.61728 1.95012 0.526591
297 1 Ar 5.58449 9.04838 0.787686 -1.72215 -0.793117 0.526493 0.654191 6.5089 -10.9128
220 1 Ar 6.45691 7.40774 1.15615 0.0753443 0.706348 -0.353326 3.80989 21.597 -3.41523
1014 1 Ar 4.71574 8.66739 1.85434 1.34996 -0.998092 -0.276553 -2.59823 11.4689 1.17323
628 1 Ar 7.2936 8.43799 16.8176 0.118253 0.466934 1.6241 -12.4053 22.2027 6.38178
581 1 Ar 6.71717 8.62035 2.10213 -1.12222 0.862716 0.370275 2.66986 -3.12173 -1.91821
660 1 Ar 6.63472 8.46311 0.959442 -0.575061 -0.573783 -0.258968 0.720331 2.24886 -2.54949
141 1 Ar 8.39836 7.68962 1.88036 0.272797 -0.311383 -0.499528 12.7351 6.78116 -11.0745
224 1 Ar 8.37566 8.80567 16.7371 0.819275 -0.231704 -0.392285 -28.0843 -39.7788 -21.6991
1018 1 Ar 7.39033 7.85365 1.69908 -2.10935 -0.438287 0.750337 -9.03436 5.26968 -7.35508
623 1 Ar 9.36704 7.12015 1.20958 0.422283 -0.841697 1.2215 -5.22656 5.31052 0.086863
3739 1 Ar 9.17203 8.31132 1.03968 1.10125 0.045308 1.29941 -11.2684 0.736619 -11.369
3821 1 Ar 9.08553 7.78666 16.6231 0.424657 -0.348877 -1.23829 6.61417 1.86892 0.00269738
586 1 Ar 10.438 8.94681 0.964798 0.360114 -1.2437 -0.0722115 8.49929 -2.31868 -2.75826
186 1 Ar 10.246 7.70646 0.616558 -0.415231 0.376832 -0.574719 -6.82705 36.4249 -8.88744
152 1 Ar 11.5233 8.81013 0.694271 -0.639492 0.71599 0.94668 2.37732 -11.3614 11.2472
197 1 Ar 13.2603 8.47801 0.143004 0.516443 0.0203222 -0.307511 24.8768 -12.3671 -23.1415
231 1 Ar 11.8259 7.56597 15.8884 0.282425 1.58995 -0.542835 11.0949 6.44977 8.98544
195 1 Ar 12.5637 9.25543 -0.00235295 -1.25083 -0.220187 0.313924 -4.04864 11.0048 25.965
353 1 Ar 13.0817 9.32619 0.993605 -0.841603 -1.49223 0.56893 -2.69041 -12.1934 11.2611
1354 1 Ar 12.6452 8.35853 0.875098 0.255848 -0.622767 0.443998 -35.7783 -6.92042 33.2662
3798 1 Ar 15.4222 8.0724 1.18557 0.73532 -1.39012 0.365152 -3.09044 2.12742 1.98224
3439 1 Ar 14.3526 9.24515 1.50314 -0.46505 0.155572 -0.827308 -1.49202 -15.6504 -23.4333
594 1 Ar 13.7746 8.20516 1.09112 0.120199 0.783275 0.0152404 5.42762 14.1986 0.903985
603 1 Ar 16.3813 8.1596 0.754228 0.60202 -0.668804 -0.697343 -11.2712 2.68791 9.13254
1117 1 Ar 15.6673 9.08555 1.40122 -0.4452 0.238792 -0.276453 -1.83419 0.268248 -0.379129
279 1 Ar 1.88431 10.0878 16.4454 -0.686169 -0.754907 0.542951 37.9966 4.83436 1.75955
247 1 Ar 2.25603 10.2082 0.813955 0.153877 -0.243973 -1.75592 -9.26588 -21.9413 -7.24683
649 1 Ar 2.95925 10.3857 16.5669 -0.541259 0.773566 -0.201258 -5.2478 -19.0243 -10.6602
638 1 Ar 4.16489 9.66425 2.14393 -1.38698 1.5217 -0.369409 -15.8259 -11.8788 -4.79947
217 1 Ar 3.14602 10.1108 1.44143 0.0656621 1.48405 -1.71518 5.11864 -6.63197 -2.51123
647 1 Ar 3.73968 8.82353 0.215595 -0.272099 -0.681277 0.391388 7.01136 -10.4398 4.05296
1414 1 Ar 4.51101 9.23641 0.956613 -0.243963 -1.35602 -0.302425 -2.63792 -9.06935 2.38914
175 1 Ar 5.38846 9.62264 1.74074 0.562603 0.441425 -0.114159 -33.8268 -8.47035 -24.9412
1051 1 Ar 4.21813 10.2445 1.27137 1.00252 -0.313107 -0.00500003 0.239853 12.9613 0.941802
655 1 Ar 4.88406 10.0589 0.470241 0.190778 0.528767 1.34717 0.890629 7.80423 4.51662
3904 1 Ar 6.65538 9.31278 0.125184 -0.92536 -0.629091 -0.0268275 -6.81972 -7.54737 8.76273
1059 1 Ar 6.03826 10.2293 2.23178 0.24854 0.666937 0.938143 9.76383 10.1492 9.04079
304 1 Ar 7.60479 8.99107 0.864109 0.188274 -0.325577 -0.947669 -5.65832 2.13378 5.06056
665 1 Ar 7.69935 9.94551 0.507349 1.72774 0.118601 0.132805 6.85206 2.2499 11.833
3784 1 Ar 8.57135 9.31485 1.34455 -1.43189 -0.457716 -0.637545 -21.1088 16.5133 -14.9635
3867 1 Ar 8.50322 10.5295 0.676403 -0.623967 0.705908 0.216094 25.789 -1.01646 -14.8496
260 1 Ar 7.90843 10.7286 1.70308 0.061864 1.23687 -1.08525 -2.7384 19.058 -12.7442
253 1 Ar 9.54275 9.49629 1.04843 0.224768 0.489653 -1.3043 11.1022 0.303336 7.55635
3787 1 Ar 11.0527 9.96626 1.0525 -0.195944 1.42177 0.553394 -4.06404 -2.74335 3.00376
669 1 Ar 12.107 9.69231 1.07439 0.00893217 -3.33612 2.69829 -20.3738 -52.5126 15.9005
309 1 Ar 12.1784 10.6246 1.34236 -0.439625 -0.686597 1.25989 -4.55078 29.4439 6.23961
636 1 Ar 12.3371 8.89693 1.86807 0.634044 -0.29173 0.613865 5.5868 0.730111 -0.586429
271 1 Ar 12.5116 10.2352 0.358218 0.198006 -0.22886 -0.171346 7.40262 20.6946 -17.648
996 1 Ar 13.2779 10.3704 1.18046 0.0533094 0.254148 -0.311587 8.35028 -15.7677 2.55601
194 1 Ar 15.0411 9.58932 0.68545 0.343503 0.0195128 0.149208 -10.8338 6.9645 10.6638
671 1 Ar 15.1843 10.4952 0.150051 0.731832 -0.676293 -0.278421 7.3503 25.1911 20.7004
1073 1 Ar 14.4503 10.3616 1.19473 1.14009 -0.126997 2.62716 4.27853 2.62796 2.28954
273 1 Ar 14.0761 10.8825 0.373583 0.831605 -2.52148 0.665396 8.93045 3.63575 -9.73642
199 1 Ar 16.386 9.81446 1.66233 0.992289 -1.61517 0.73779 -14.5257 -22.5917 -20.9318
315 1 Ar 16.0747 9.86153 0.405055 0.429604 -0.405028 1.93093 -1.00625 1.67855 14.8717
634 1 Ar 16.7688 9.10679 0.929158 -0.0753892 -0.721067 -0.218301 -17.6036 30.0708 -3.32573
241 1 Ar 0.38839 11.3533 0.705815 0.871888 0.851839 0.875996 -7.9796 0.731925 -7.67646
685 1 Ar 0.952991 11.4103 1.57064 -0.444261 0.935721 2.24059 7.62497 1.18217 9.09094
208 1 Ar 16.8284 10.8918 16.5203 1.06369 -0.168581 -1.65828 4.07675 -3.74785 6.59395
212 1 Ar 1.20856 10.9786 16.488 0.520897 1.16853 0.415655 18.9415 7.98327 23.1694
648 1 Ar 2.09812 11.2107 0.902638 -1.27208 0.0413214 0.719722 10.3562 10.6396 11.4962
245 1 Ar 1.37174 11.8398 0.510795 3.27047 -0.381748 0.847036 -23.3635 -4.63363 -12.4887
1090 1 Ar 2.22315 11.8107 1.90061 1.89523 0.523457 0.0546377 -2.75046 -9.71416 5.47802
689 1 Ar 3.11361 10.791 0.666972 -0.10974 2.35904 -1.29995 14.3305 27.4957 12.2006
1056 1 Ar 3.00304 11.107 1.78813 0.99078 -2.20964 -0.267432 9.08529 7.70046 -10.0389
1089 1 Ar 4.18308 10.7517 0.165054 0.187566 0.695971 -0.98239 -5.68982 3.63346 0.672565
616 1 Ar 3.99241 11.3304 2.04344 0.273617 0.0311994 -0.662887 13.0651 -5.11842 8.06434
691 1 Ar 4.94179 11.111 1.04968 -0.403831 0.648146 1.79286 3.42053 -4.72042 -3.14858
1417 1 Ar 5.75689 10.4036 1.15853 0.198308 -0.695748 -0.122381 -1.50713 11.8248 -10.0044
250 1 Ar 4.56946 11.8644 16.7296 -1.15389 -1.10071 -0.46325 24.3153 19.1921 4.53419
3895 1 Ar 6.56483 11.3786 0.747451 0.875368 -0.710851 0.592839 -4.12977 -26.8103 -16.1228
259 1 Ar 6.74807 10.2786 0.6284 -0.176138 1.11673 -0.696889 -12.7549 12.3253 0.0957806
1455 1 Ar 5.86119 11.3704 1.6394 0.417731 -0.365672 1.01701 0.740988 4.40465 3.72526
1422 1 Ar 7.3221 9.78803 1.60305 1.61322 0.800852 0.359669 17.6611 11.3636 -1.55462
232 1 Ar 8.53717 11.4629 1.17989 0.0615091 0.789479 -1.10605 -3.67121 -0.590287 -1.74941
302 1 Ar 7.30664 11.9252 1.21802 0.877434 0.0404455 -0.123373 15.5248 1.94476 10.5472
300 1 Ar 7.59396 10.9896 0.674267 0.848012 0.12975 -0.245131 -12.6964 15.0371 -2.61356
668 1 Ar 9.71423 10.4637 0.650141 0.824179 0.0491559 0.771473 -6.03584 -24.5813 -18.7532
626 1 Ar 10.6332 10.9537 0.931413 0.0755598 0.292472 0.771148 12.0289 12.3997 23.4967
3832 1 Ar 10.2002 11.7029 0.0537217 -0.498923 -0.292055 0.566769 -3.357 -9.01242 4.27394
1461 1 Ar 9.67006 11.3138 1.13556 -0.288719 -0.000278625 -0.210063 -10.5791 35.4916 21.4289
3866 1 Ar 11.7403 11.7987 16.6917 -0.565912 -0.652067 -0.747908 1.33833 8.09693 4.45396
1070 1 Ar 12.963 11.2656 1.50903 -1.01359 0.21257 0.349251 13.4972 22.3405 12.9038
270 1 Ar 14.0852 11.4925 1.42156 0.250688 -1.68959 0.558553 -5.30244 -3.28036 -5.80945
351 1 Ar 13.0747 11.1368 0.478349 0.25114 1.01003 0.0629409 -3.76445 -1.88187 -9.58963
3876 1 Ar 15.3875 12.3249 16.4158 -0.423654 -1.07496 0.456268 -1.43599 1.29537 -6.87427
360 1 Ar 14.2684 11.964 16.8193 0.440579 0.846054 0.614331 28.2496 -8.52133 -15.6814
3884 1 Ar 15.0257 11.5106 0.880609 0.664818 -0.375918 -0.931657 -2.21523 -13.3772 -0.747151
275 1 Ar 15.8883 11.4262 16.7667 -0.353501 -0.93735 -0.360377 -10.3768 -9.27427 12.3893
321 1 Ar 16.1829 11.508 0.986614 -0.181519 1.22812 -0.8605 -4.98524 8.38877 8.62736
726 1 Ar 16.4389 12.6393 0.0702083 -0.194763 1.40975 1.18517 -0.825281 0.627946 -0.581464
687 1 Ar 15.7139 10.6068 1.31526 -0.378966 -1.30655 0.326454 -0.472153 -11.0749 -12.9484
288 1 Ar 0.540407 12.4878 0.860258 2.06074 -0.236422 0.12416 -6.99132 -0.824619 -2.05099
368 1 Ar 0.478479 13.6537 0.244806 -0.382252 -0.324396 -0.377203 68.2905 -36.9328 19.7665
692 1 Ar 2.12563 13.0213 0.0911545 1.10862 0.83001 -1.90364 -2.46358 12.779 28.0356
686 1 Ar 2.77545 12.8621 1.3213 -0.220855 0.408535 0.292677 51.1753 45.6435 44.0842
361 1 Ar 2.3363 14.2472 15.8386 -0.712577 -0.235106 -0.491103 -0.111258 -15.3882 -12.053
725 1 Ar 1.70471 13.5536 1.87578 -0.165336 0.412428 0.0929361 10.5955 -1.9731 -2.23262
3925 1 Ar 2.1758 14.9748 0.656382 -0.994968 -0.647133 -1.26087 49.0047 -3.96194 1.74956
762 1 Ar 3.39171 13.5284 0.897334 -0.822628 -0.965177 1.0001 11.0212 30.0479 -11.2015
690 1 Ar 4.02378 11.6134 1.02516 -0.840912 -0.610034 0.276063 -5.21452 0.439362 -8.92998
650 1 Ar 5.40377 12.2847 0.31041 -0.81672 -0.120166 -0.0425957 15.125 5.01487 5.44609
1456 1 Ar 3.91593 13.1612 16.5548 0.918989 0.0671491 -0.882595 -4.00848 -12.3686 19.2031
332 1 Ar 5.16421 13.5606 -0.0135215 -1.28126 1.60483 -0.745375 6.25306 -3.70554 4.48764
730 1 Ar 4.56172 13.1456 0.818937 -0.440844 -0.742915 -0.160972 -3.91994 -8.3096 -1.30002
1094 1 Ar 6.20738 12.9831 16.785 1.2144 -0.499481 -0.476424 -0.315049 5.45741 -9.24611
3900 1 Ar 6.26088 12.2753 1.07486 1.17738 -0.291332 -0.49599 -9.32891 15.9868 12.6104
339 1 Ar 6.67124 13.5582 1.27075 0.0796851 -0.804874 -0.0531065 -0.458461 -12.3806 12.9858
295 1 Ar 8.41372 12.223 0.406019 1.23848 1.37404 -0.0259348 -5.55404 5.35701 5.59144
296 1 Ar 7.72685 12.9461 0.881308 0.430884 -0.429245 0.95191 -1.1769 -22.5913 -14.7768
305 1 Ar 8.78195 13.4701 0.520229 0.53654 -1.43998 -1.70179 -10.5433 12.1559 -1.28999
1538 1 Ar 8.46871 12.9964 1.67581 -0.028765 0.600177 -0.649998 -4.64717 3.60038 -9.10884
662 1 Ar 10.8021 12.0412 1.16955 1.1537 -0.0222076 0.826493 8.09844 -7.69845 -3.39822
707 1 Ar 11.6402 12.5415 1.8209 0.688173 1.40949 1.35125 -3.16765 -2.4171 6.10196
747 1 Ar 9.41179 13.5675 1.72347 0.20731 2.05798 0.959243 2.4695 1.54357 -10.0333
3941 1 Ar 11.0728 12.6068 16.3094 0.320063 0.548961 -1.21868 -7.92914 -6.4554 -8.15252
3512 1 Ar 12.0736 11.6261 0.942313 0.595358 -0.0494515 -0.52394 -0.00582262 0.453963 4.25571
749 1 Ar 11.7517 13.5362 1.28065 0.607926 -0.501066 0.141846 8.74832 3.04298 -1.40309
346 1 Ar 10.8813 14.3295 1.10581 -2.88214 0.0809053 0.766477 -0.801944 -3.37803 -11.406
385 1 Ar 12.0408 12.8716 16.5449 -0.652 -0.467928 -0.453787 12.4433 -0.22374 4.02104
354 1 Ar 13.4291 13.341 16.6981 -0.257637 0.492398 0.487857 -10.3655 -3.88269 -58.4762
387 1 Ar 11.6059 12.5911 0.78115 -0.371186 -0.277903 0.651211 7.593 0.0874357 -16.3541
3912 1 Ar 13.6223 13.4081 0.832219 0.799143 0.778458 0.264649 -3.12078 9.81038 72.4948
3591 1 Ar 13.5773 12.2231 0.670945 -0.262467 0.157084 -0.164028 -8.35089 9.36532 29.2553
3959 1 Ar 14.4268 13.0994 0.321059 0.535594 0.582116 -0.0837619 20.1238 -17.0361 -26.1643
670 1 Ar 14.3918 12.5813 1.24609 0.326547 0.488078 2.09123 7.58462 -1.5962 3.77896
356 1 Ar 14.2567 13.572 1.77277 -0.491836 -1.43244 -0.352579 -16.1611 -8.16187 7.60628
3924 1 Ar 14.6968 13.9166 0.893088 -0.954538 1.12874 -0.642484 -3.62305 5.5304 -1.74246
318 1 Ar 15.4456 12.439 0.697943 -0.490696 -0.724866 0.323633 0.945545 5.34949 -0.820694
282 1 Ar 1.57372 15.1599 16.2289 -1.03211 0.115131 -3.04806 31.4382 9.20276 -30.7112
758 1 Ar 0.157385 14.6758 0.601941 0.84658 0.438385 0.178449 18.9746 18.0404 25.5961
1171 1 Ar 1.27282 14.3838 1.23298 -0.228446 0.707479 0.0720639 -4.01727 0.194194 -6.21562
365 1 Ar 1.28128 15.17 0.383346 -1.02746 -0.100841 -0.578861 -56.9482 13.8352 18.1158
3 1 Ar 1.79729 14.1554 16.6975 1.52145 1.1085 0.637048 -15.0826 -1.51343 9.82272
17 1 Ar 4.20187 14.8078 1.69816 0.0280177 0.449215 -0.408387 26.1751 30.6935 6.34024
376 1 Ar 4.034 14.7088 0.320922 0.357228 0.247828 0.642441 4.72757 -1.76503 10.5475
736 1 Ar 5.15866 14.6499 0.193116 -1.03003 0.360983 0.747866 -7.06194 -2.66569 7.46502
3580 1 Ar 5.75634 14.3091 1.26411 0.236743 0.302774 0.534208 25.7974 7.18203 1.07434
694 1 Ar 6.46076 14.0488 0.419198 -0.777734 -0.105079 -0.051795 -18.82 -10.9028 -4.52281
3940 1 Ar 7.16834 14.7473 0.848745 0.338445 -0.692025 1.35403 -27.1213 -4.2009 32.8243
3981 1 Ar 7.5191 13.9286 0.263477 1.27955 0.966011 0.666282 5.91915 -17.3834 6.60642
337 1 Ar 8.29011 14.7817 0.966899 -0.184923 0.240608 -1.74025 31.3834 -15.3256 50.1161
698 1 Ar 7.69499 13.8166 1.34778 0.446368 -1.67098 0.258514 7.25628 31.797 16.431
308 1 Ar 8.98872 14.545 0.0622792 0.217089 -1.17545 0.532412 -1.85237 1.40119 1.72762
746 1 Ar 11.1869 13.4277 0.277575 0.533339 1.25517 -1.00526 4.19325 0.699718 16.0379
381 1 Ar 12.2287 15.3113 16.2386 -0.694545 -0.529222 -0.58096 11.3032 -22.0095 1.85347
352 1 Ar 11.7749 14.8987 1.1694 0.795361 0.632687 -0.689609 1.16113 2.77511 22.8131
350 1 Ar 12.5859 14.1352 1.41804 -0.943682 -1.31849 0.323495 16.0539 9.58379 1.96571
3950 1 Ar 13.685 14.4367 1.36452 -0.174001 0.326681 -0.127003 -9.60177 -13.5298 14.5363
39 1 Ar 14.8972 14.874 1.21934 -0.177602 -1.48367 -0.674303 2.64583 4.27876 -0.923007
681 1 Ar 13.6012 15.4748 1.22484 -0.452696 0.0474712 -0.00967396 -4.63248 -0.725326 0.493733
317 1 Ar 16.0756 14.1813 1.09125 1.62664 -0.242172 0.910109 6.89483 -9.58322 -11.7851
357 1 Ar 14.8997 13.9291 16.3977 0.0592502 0.117477 -1.32109 -6.52202 3.93243 5.05027
1078 1 Ar 15.667 14.4809 1.97765 1.29318 -0.50344 0.199821 0.2997 7.28948 4.11634
724 1 Ar 15.6399 14.8533 0.316132 1.21369 -0.591235 0.164648 15.0398 -7.63112 15.6783
3607 1 Ar 16.5278 15.3634 16.4855 -1.10226 -0.503962 -0.289591 2.14653 -4.01022 0.714956
45 1 Ar 0.557747 16.7889 0.863967 0.812879 0.698587 1.02457 5.27765 9.70094 -5.7281
761 1 Ar 3.43058 16.5495 0.563022 -0.110881 -0.755256 1.02802 12.0543 3.93169 1.92984
49 1 Ar 2.69416 15.9364 1.06276 1.14994 1.12497 1.21071 -9.41604 -1.98009 0.341002
364 1 Ar 2.69619 16.4538 16.5911 -0.000183088 0.537046 1.47556 -9.6473 -24.801 -13.7008
3929 1 Ar 2.04988 0.581183 16.4885 -0.259948 -0.10642 -0.0915503 11.6285 6.39641 6.14691
459 1 Ar 3.74042 15.5635 1.1135 1.76636 0.292384 0.446364 -21.1979 1.29639 -2.22748
374 1 Ar 4.36116 16.6107 1.31359 1.31811 0.119992 0.0625836 -11.7449 -21.9514 7.25023
3971 1 Ar 4.6947 16.0048 0.118895 0.138418 -0.674516 -0.547724 15.5787 1.08308 -4.24343
3977 1 Ar 6.38942 16.5281 1.72392 0.036168 -0.184921 -0.0669288 1.99522 2.4661 -2.66813
380 1 Ar 5.43821 16.5102 1.11517 0.147591 0.343388 -0.0728893 -6.09441 11.835 5.22437
740 1 Ar 6.41228 16.3559 0.60335 0.88315 -0.27142 0.594657 -7.58941 -3.14117 1.02002
336 1 Ar 4.7131 15.4417 0.946743 0.680694 -1.43343 -0.223905 30.2346 -15.5592 16.3346
3939 1 Ar 5.77917 15.5951 1.41071 1.14178 -0.757603 -0.891776 2.37534 -18.2577 1.79882
460 1 Ar 7.39478 16.7367 0.824313 -0.0299667 0.65234 0.632939 -2.30777 -5.13054 4.9906
733 1 Ar 7.16178 15.7229 0.177507 -0.977192 -1.3156 -0.748751 -5.84377 -0.606369 13.1596