ITEM: TIMESTEP
9000
ITEM: NUMBER OF ATOMS
4000
ITEM: BOX BOUNDS pp pp pp
0.0000000000000000e+00 1.6795961913825074e+01
0.0000000000000000e+00 1.6795961913825074e+01
0.0000000000000000e+00 1.6795961913825074e+01
ITEM: ATOMS id type element x y z vx vy vz fx fy fz
446 1 Ar 1.43665 1.86872 16.6694 -0.517761 -0.413977 0.0493354 7.03144 9.06994 1.77879
3966 1 Ar 16.535 16.6103 16.4908 -0.278634 -1.23083 -1.34069 -7.7315 14.0181 3.91185
798 1 Ar 0.571612 1.44809 0.300937 -0.999305 -1.12222 -1.48641 -0.869942 -21.3942 16.5928
91 1 Ar 3.84178 0.589463 1.34227 -0.795133 -0.809875 1.31834 1.15043 10.1604 24.1609
12 1 Ar 1.5631 1.14501 0.721891 0.618746 1.1568 -0.392107 -10.1936 0.00218067 -2.74304
46 1 Ar 2.43067 0.308554 0.704065 0.665949 0.877607 -0.876845 3.4392 22.9266 -20.6741
412 1 Ar 0.776947 0.1316 16.7033 0.609323 -0.00368915 1.00562 -44.2902 -0.503617 17.9496
489 1 Ar 3.30263 1.04693 0.461421 -0.601121 -0.443581 0.854421 14.3469 -6.71238 13.9742
1133 1 Ar 5.44563 0.339606 1.78491 -1.15629 -0.0437532 0.204048 -4.0622 -8.89901 3.68554
457 1 Ar 5.42238 0.767378 0.746196 0.651704 0.116522 0.493254 1.6793 -10.348 -1.54587
500 1 Ar 4.37276 1.37786 1.02368 -0.104011 -0.479772 0.334019 14.1827 18.633 -8.47884
334 1 Ar 7.46461 0.702674 1.41238 1.89961 0.302564 0.833429 3.69559 9.44165 19.431
780 1 Ar 7.19592 1.07116 0.51863 1.00896 1.05983 -0.00973219 -0.418576 14.5817 -18.8613
15 1 Ar 6.23806 1.34418 0.00844773 -0.233713 1.17172 0.177489 -1.26766 -1.18394 -1.18672
383 1 Ar 8.48652 0.189182 0.366699 -0.281635 -0.376256 -0.778735 -1.9074 6.36624 5.66532
384 1 Ar 8.83206 0.615505 16.2518 -0.377029 1.27502 -0.663155 5.38341 5.96151 -5.12275
3944 1 Ar 9.46191 0.290073 1.03606 -1.10248 -1.13804 0.173133 -17.3635 30.6301 4.13594
3627 1 Ar 9.17218 1.27591 0.251527 2.94919 2.22593 -0.728475 -9.16873 -1.60324 25.3622
505 1 Ar 10.4655 0.352842 0.59378 0.310322 -1.55208 0.166624 -28.5602 10.6797 -22.6115
379 1 Ar 8.7527 1.99526 1.37825 -1.20219 1.47395 0.368315 4.48068 3.03261 1.29789
474 1 Ar 11.2548 0.173221 1.14207 -1.16848 -1.29277 -0.179412 12.6202 -8.79767 21.9506
21 1 Ar 9.89682 1.34417 1.32873 -1.39099 0.325498 -0.385282 4.12633 -4.11829 -4.77272
71 1 Ar 12.666 1.71647 0.214684 -1.72795 -0.0465214 -2.07112 -10.2358 -20.5424 20.7175
109 1 Ar 13.6852 0.925501 1.81484 -0.805583 -1.0293 0.131584 2.80374 7.52821 2.38057
388 1 Ar 12.6185 0.927311 1.3458 0.763709 0.199615 -0.264996 8.59273 -21.5054 -4.831
3991 1 Ar 12.797 0.61624 0.204257 0.101903 0.103318 -1.23816 -2.90231 7.66849 17.3035
429 1 Ar 13.7365 0.679133 0.744212 0.231739 -0.295904 -0.768368 -2.5326 2.61355 4.60381
79 1 Ar 15.5674 0.177043 0.694301 1.70428 -0.616896 -0.286928 -6.64765 14.1021 -12.1833
33 1 Ar 14.5354 0.317614 0.153252 -0.157776 -0.18974 -1.08431 5.85369 1.47924 43.4467
795 1 Ar 14.681 0.610901 1.3768 0.0882237 0.289842 -0.787358 3.79084 -37.155 9.57793
438 1 Ar 15.5685 1.31306 1.39596 -0.67545 0.92092 -0.000522878 7.47873 8.40321 0.0202325
764 1 Ar 16.3677 0.648081 1.16657 1.49232 0.331405 -1.50959 -8.78855 1.42755 13.56
439 1 Ar 16.4574 1.31617 2.06075 -1.3254 0.515311 -1.34327 10.2661 -4.95317 -2.11912
441 1 Ar 16.542 1.78903 0.960397 0.44272 1.01248 -0.234449 -2.18593 -0.332208 1.00096
84 1 Ar 1.00242 3.01045 16.2407 0.0357894 -0.0213357 -0.39895 -13.8192 11.8401 25.007
442 1 Ar 2.41577 1.42986 0.161091 -0.0155961 -0.309813 -0.848671 -19.0765 14.0168 -0.549062
487 1 Ar 2.31673 2.23619 0.999987 -0.844213 -1.03799 0.00378908 0.821494 2.18572 -0.0186522
1170 1 Ar 3.2715 2.08168 0.263542 -0.217493 -0.391133 0.36957 -3.4639 -0.454829 -1.7552
811 1 Ar 4.54339 1.07559 2.11926 1.52905 -0.606469 -0.15253 -2.44243 -15.201 -9.20553
413 1 Ar 3.48914 1.93554 1.34559 -1.07254 0.0622341 -0.744329 -10.0975 -5.0194 6.69715
1134 1 Ar 3.18959 2.94831 0.835468 0.971738 -1.87313 0.0237538 -19.7967 10.4721 15.3164
375 1 Ar 4.80752 2.28514 1.67527 1.22 0.408561 1.8302 5.40156 -2.07795 -9.3626
95 1 Ar 6.3684 1.75618 0.998042 0.0875546 0.238366 -0.0610875 4.0645 -1.55005 5.37843
64 1 Ar 7.70337 1.84669 1.23852 0.467546 -0.0864511 -0.374508 0.840781 -7.81972 8.27504
133 1 Ar 5.96934 2.78883 1.09691 1.2936 -0.337289 -0.714827 -5.01749 -8.82557 -0.633353
898 1 Ar 6.19496 3.79728 1.02313 0.495914 0.601067 -0.725191 27.6419 -8.9191 -2.66408
58 1 Ar 8.51779 0.934716 1.15275 -0.608661 -1.42521 0.118936 -6.35186 0.61729 -7.21053
432 1 Ar 11.0962 3.11826 0.291581 -0.320166 0.797065 1.14237 -17.7046 11.8405 0.833599
97 1 Ar 9.33695 2.39167 0.516023 0.901728 -1.51239 -0.121093 -11.0194 -5.28393 8.51703
25 1 Ar 11.0548 2.37662 16.3455 0.347516 -0.0599047 1.77679 1.77215 11.1395 -11.9185
912 1 Ar 10.3072 2.46303 0.939393 2.00988 1.70542 0.96558 18.7837 -1.7571 0.538527
73 1 Ar 11.9088 3.15949 0.927936 -0.57982 -0.0162404 -0.431301 15.6851 21.6624 17.5609
469 1 Ar 13.3772 1.71729 1.00803 0.448991 0.45724 -0.606672 10.804 -4.05255 5.85797
513 1 Ar 13.8085 2.93763 16.6549 0.708072 0.54836 -0.120518 -11.2751 13.8941 6.63416
31 1 Ar 11.6556 2.27292 0.499831 1.45379 0.231243 0.252754 -7.55786 -19.7271 10.1645
36 1 Ar 15.4491 2.24175 0.645033 -0.769667 1.31114 2.06987 -3.87239 -8.91803 7.72383
3674 1 Ar 14.5093 3.89215 0.568327 -0.250937 0.971333 -0.289171 -15.8594 24.5671 13.1361
3716 1 Ar 14.0151 2.89583 0.947336 0.0684099 -1.07788 -0.00120065 2.48288 7.12773 11.2918
35 1 Ar 14.634 1.533 1.03832 1.3381 -1.3256 -0.331359 -21.0553 31.3678 -10.9687
434 1 Ar 16.0956 1.07377 0.246878 -0.0417862 -0.569966 1.17265 3.91891 4.48813 6.66582
42 1 Ar 16.3085 2.86094 0.669116 1.12756 -0.243394 1.19154 -8.17635 -3.20502 6.48884
115 1 Ar 15.3134 3.19042 1.15063 0.867425 0.34484 0.080241 -3.79725 7.31173 4.51529
523 1 Ar 0.404752 3.31575 0.432562 1.5644 0.684994 -0.553501 26.3525 -19.8414 -5.29281
124 1 Ar 0.346062 4.02747 1.86175 -0.867087 -0.810048 0.501196 19.0357 -3.03245 -15.1766
3724 1 Ar 16.75 4.18693 0.55872 0.087773 0.714387 0.0795884 -28.5093 -1.12302 14.7346
48 1 Ar 0.957657 4.33288 0.599582 0.90618 2.51769 0.713144 36.1256 -23.1268 10.5729
452 1 Ar 1.97529 3.43815 0.81776 0.692048 0.354935 1.71324 -4.52905 11.6991 1.23859
92 1 Ar 2.77025 4.1439 0.0671797 0.16246 -2.07128 0.181756 -4.19573 -3.20406 17.8482
530 1 Ar 4.16624 3.17265 1.76373 1.14427 1.3605 0.127382 2.78864 -2.31499 -13.9517
893 1 Ar 2.94628 3.85615 1.34623 -0.160693 0.770646 -0.258491 3.51124 0.124691 -5.02842
3692 1 Ar 5.65193 4.47633 0.54511 -0.197603 -1.43689 0.905933 -11.5075 18.4203 -13.2399
3731 1 Ar 3.84602 3.88302 0.602326 0.830675 -0.770243 1.81868 -4.70445 -4.97407 1.1985
3653 1 Ar 5.21653 3.28664 2.16345 -0.79702 -0.180465 1.65145 -14.3518 -4.18406 -1.79696
894 1 Ar 7.00209 2.46881 16.2446 -0.441145 1.15999 1.47703 -9.35461 25.8713 7.67262
3657 1 Ar 7.33704 3.79747 16.3767 -0.615302 0.870058 0.308901 -12.866 -26.4669 -5.43094
90 1 Ar 6.94183 4.33586 0.416888 -0.351116 -0.703529 -0.13305 6.67852 -25.8312 -23.8474
136 1 Ar 6.39437 3.14371 0.123336 0.520547 0.318657 -0.173898 -0.377056 1.12084 -2.04733
20 1 Ar 7.24652 3.14454 15.3573 1.20867 0.793846 -0.494888 4.34971 6.76045 3.43676
3695 1 Ar 8.23935 2.87516 0.800209 -0.0271267 0.649368 1.39027 -19.7024 -17.5775 10.7015
100 1 Ar 8.83965 3.12695 1.63281 -2.08311 0.903471 0.862433 16.6855 8.84803 -0.452994
538 1 Ar 8.52409 4.188 1.31224 -0.122697 -1.39548 1.9062 1.51104 -17.4076 -30.8094
974 1 Ar 8.07848 3.98068 0.337748 -0.767763 0.382765 -1.02321 -36.7909 4.23818 -4.96742
68 1 Ar 9.90033 3.52841 1.66741 1.15008 -0.417167 -1.17101 -17.3396 -7.55664 17.057
135 1 Ar 9.90614 3.32975 0.602601 0.555583 0.641057 -0.4249 18.7188 26.3036 16.3652
102 1 Ar 9.45318 5.68965 0.159482 0.407573 -0.149131 1.00048 -0.651017 -28.2 0.309302
106 1 Ar 10.8435 3.63157 1.33904 -0.504304 -1.17091 -1.29476 19.7432 -39.4976 -36.074
506 1 Ar 10.8323 4.39684 0.506967 -1.11069 1.70166 1.85742 2.86744 11.9897 27.6887
66 1 Ar 11.8288 3.94939 0.0730217 0.66586 0.760172 -0.470613 2.91961 1.63206 9.99175
3671 1 Ar 12.8888 4.1681 16.3598 -0.277237 -0.164626 0.190266 -5.32131 8.43033 -5.10082
3747 1 Ar 12.9451 3.6882 0.475595 -0.100236 1.29084 0.407529 -3.23849 3.22873 10.0916
146 1 Ar 13.6442 4.57326 0.323355 1.24279 0.323412 -1.21136 0.414985 -12.9475 -16.7804
155 1 Ar 12.3868 4.90602 0.281696 1.16656 -0.389977 -0.548211 8.24242 -8.00899 2.7111
3714 1 Ar 14.5287 4.30031 1.68979 -1.37601 0.132498 -0.425531 3.00632 0.756512 -19.4518
150 1 Ar 14.6228 4.99983 0.676394 0.662118 -0.059002 -0.549902 -6.61203 -5.11003 17.9167
402 1 Ar 16.2418 3.57098 1.51947 -1.14295 1.02674 1.04455 5.66359 0.0179177 -8.40358
3642 1 Ar 15.4193 4.3442 1.05222 0.401534 1.76419 0.34574 8.4487 -3.03282 2.3854
524 1 Ar 1.37603 4.64732 1.56255 0.88745 0.713614 -1.20436 5.62202 -12.7801 15.6404
123 1 Ar 0.888097 6.22476 1.36649 -0.222678 0.296877 0.206056 0.181202 -4.9899 -10.208
200 1 Ar 0.467575 5.03789 1.24979 0.53529 0.167673 -1.68102 -10.3496 10.0264 -7.94449
163 1 Ar 0.409219 4.97958 0.0904018 -0.0561319 -0.537655 0.849026 -15.6857 21.1731 -23.672
3725 1 Ar 1.40757 5.08736 16.5603 -0.312477 -1.18725 0.0444147 -8.62073 -21.5257 12.7669
522 1 Ar 3.46679 4.76617 1.1656 -1.58737 1.418 0.582896 7.76803 -20.2133 1.49111
173 1 Ar 2.0028 6.22367 0.483115 1.68081 0.379946 0.345028 4.37644 -6.6526 1.90104
526 1 Ar 3.01211 6.05058 16.7916 -0.435826 -2.0343 0.234385 8.12579 10.6454 -3.85035
129 1 Ar 4.61846 4.88736 1.06157 -0.676922 -0.796592 0.623616 -0.402979 -2.98706 -2.27969
3732 1 Ar 3.73065 5.62143 0.708073 -1.21128 -0.816706 -0.113978 6.06564 24.1775 0.356615
174 1 Ar 4.59853 5.89104 1.47407 -1.2586 1.27177 0.265161 -17.4831 9.10225 -23.2987
130 1 Ar 5.33784 4.10275 1.51982 -0.140183 2.37472 0.33091 -15.792 8.64568 13.3765
178 1 Ar 3.66772 5.16848 2.14273 0.618331 -1.56935 0.117909 0.214255 -2.07876 8.36651
3296 1 Ar 5.55497 5.50444 1.03633 1.57181 -0.73642 0.401905 -29.3844 -31.9343 5.84641
3735 1 Ar 6.5416 5.22436 0.487838 -0.291875 -1.07275 -0.773168 -5.01423 13.1241 0.0865493
3740 1 Ar 7.73499 5.10337 0.679594 -0.425594 -0.735776 0.629108 0.666136 -8.84192 3.2491
219 1 Ar 8.55887 5.97077 0.792229 -0.0605974 0.0788179 0.574916 -4.88336 10.214 8.40955
977 1 Ar 7.19079 4.43642 1.38576 0.350012 0.522619 1.3786 -0.785875 8.92192 19.785
180 1 Ar 8.98054 5.16487 1.28543 0.247905 -0.0118936 0.0643468 10.2019 -19.4065 -0.92309
3704 1 Ar 9.91882 4.68558 0.00108894 -0.285486 0.738486 -0.531172 -13.2751 -2.74472 4.60277
94 1 Ar 10.6329 5.65568 0.279186 1.49888 0.974132 0.981044 -61.4558 33.6212 2.976
494 1 Ar 9.59272 4.31479 1.00474 0.646179 -0.171179 0.59871 1.19487 -0.740103 -3.90257
181 1 Ar 10.0036 6.27309 16.2823 0.247242 0.313104 1.48337 6.02158 7.32654 -0.61791
148 1 Ar 11.2554 5.26266 1.0306 -0.0513693 0.158667 -0.530479 26.1281 4.90258 21.1618
191 1 Ar 11.4416 5.23716 0.0295465 -0.542066 0.401924 -0.536218 41.0489 -32.3908 -30.6276
190 1 Ar 14.2906 5.72419 16.7611 -0.510802 0.487722 -0.43853 -0.743973 6.15597 23.8254
989 1 Ar 12.7844 6.59194 0.568369 1.63562 1.01648 -0.184698 -8.44648 -22.0958 -19.8269
196 1 Ar 13.4126 6.48285 1.39049 0.808867 -0.00736365 0.33037 -12.5056 -19.4401 5.43016
81 1 Ar 15.1945 5.23538 1.74419 1.9276 -0.466343 0.395063 15.3839 -23.8148 2.31058
151 1 Ar 13.7131 5.40638 0.90537 -1.13195 0.0407757 0.439997 -8.97472 29.8747 12.2931
559 1 Ar 14.6607 5.90911 1.24622 -0.910351 -1.339 -0.585346 -24.5543 24.7892 1.17998
120 1 Ar 16.3286 4.77222 1.62816 0.669453 -0.598726 -1.23323 -10.2488 -13.7508 0.511921
561 1 Ar 16.1886 5.64823 2.18122 -0.709839 0.104567 1.42863 1.12902 -31.1683 -23.6576
564 1 Ar 16.7173 7.00662 1.884 0.132006 0.188964 -0.507217 17.1056 -10.8639 5.48809
126 1 Ar 1.17144 6.87174 0.168131 -0.853421 -0.906478 0.588584 10.2481 2.79214 13.2277
3758 1 Ar 1.14536 7.55674 1.68744 -0.427052 -0.606803 1.035 -12.8679 9.95015 4.21616
1010 1 Ar 2.0889 6.9737 16.2936 -2.34355 0.654933 -0.912646 -1.99877 -32.7608 5.597
965 1 Ar 1.81619 6.79761 1.6564 1.74659 0.11749 0.46202 11.9746 -24.4862 20.0975
157 1 Ar 2.62569 5.3825 1.0868 -0.0129929 -0.970417 -0.563402 -3.77858 22.3565 -7.64929
211 1 Ar 2.95864 6.70984 0.937186 0.765598 -1.17035 0.292609 3.17852 -0.507247 0.571879
243 1 Ar 3.08031 7.13105 16.5725 0.947083 1.12155 -0.639113 5.65189 -0.307621 13.5744
606 1 Ar 4.12006 8.31753 1.55284 1.67839 -0.29835 -0.45997 22.4128 -10.1971 -21.6364
653 1 Ar 4.12343 6.75203 0.692894 -0.128757 -1.94174 0.518142 -7.92663 19.2596 30.1337
569 1 Ar 4.86544 7.59323 1.05421 1.23875 -0.606845 0.82754 -8.61353 -4.75373 0.640267
3375 1 Ar 5.88649 5.91452 1.90558 -0.120464 -0.36678 1.67054 -1.08746 8.70766 7.2617
3779 1 Ar 6.20269 6.14712 0.688209 -1.99093 0.856565 0.447111 18.0829 50.3337 6.21941
1019 1 Ar 7.97652 6.72975 1.68148 -1.27884 -0.497292 1.06923 0.905655 2.53072 -5.83757
3859 1 Ar 7.1864 7.21981 0.96084 -0.735151 -0.193676 0.0369669 -6.99239 2.39114 2.70443
215 1 Ar 7.44665 6.12457 0.73381 0.331459 -0.154682 0.290437 2.16841 12.9882 -12.6346
183 1 Ar 8.14941 6.98545 0.543506 -1.04727 -0.643554 -0.0534722 2.64285 -5.16852 2.30187
544 1 Ar 9.60893 6.0708 1.14079 -2.22279 0.336275 -0.116868 -1.0001 -4.98097 -5.88373
3836 1 Ar 10.3206 6.72362 0.443296 0.531678 2.20676 0.273621 4.23816 -4.78995 9.92567
3384 1 Ar 9.18662 6.66394 0.244669 0.197647 0.299411 -0.37418 0.933905 11.2515 -18.0229
950 1 Ar 11.8223 6.15389 0.480343 0.717677 -0.372351 0.142569 -12.2925 3.31198 -2.88956
713 1 Ar 12.2948 7.49059 0.312465 0.244539 0.185646 -0.286677 0.94739 6.69265 0.55659
993 1 Ar 14.0661 6.63487 0.66961 0.189082 1.00503 0.93637 33.7284 -0.907179 -6.30314
193 1 Ar 14.3551 7.82181 1.01108 -0.429047 0.0729014 0.484744 -16.4433 -15.0646 -7.14889
960 1 Ar 15.3571 7.74189 2.63272 -2.07066 0.85927 0.939726 26.8921 -13.5494 -2.40582
557 1 Ar 13.5171 7.42365 1.77031 -0.427596 1.24842 0.127304 4.38054 10.2725 -1.32195
158 1 Ar 16.186 7.87934 1.9453 0.88696 0.842319 0.952428 -36.7059 -12.3488 3.72272
605 1 Ar 16.4999 5.98635 0.974412 0.876961 -0.379333 0.797286 -6.89158 3.87048 10.9414
3790 1 Ar 15.912 6.94559 0.489719 0.238876 -0.388595 0.354086 2.31474 -10.5423 15.0696
597 1 Ar 15.7503 6.63098 1.67086 0.489576 -0.556518 -1.42399 -7.97945 -3.97403 -2.50021
554 1 Ar 15.9441 6.52095 16.3194 -0.0863544 -0.612412 0.188725 -0.443358 15.3828 1.82415
922 1 Ar 0.518697 7.72815 0.15925 -1.72191 1.34338 -0.405101 0.211899 -8.28842 -13.404
201 1 Ar 1.52523 8.23324 0.930558 -0.0988301 -0.0990729 0.029428 -3.41431 -6.22935 -8.12664
3808 1 Ar 16.4923 8.83172 1.78005 -1.21107 0.460766 -2.69535 10.1063 11.4554 0.0802983
608 1 Ar 0.374528 8.12712 1.0857 0.0493889 1.08507 0.514485 -6.70802 7.1249 13.1205
167 1 Ar 1.86995 7.84768 16.7545 0.700947 0.0789756 -0.41172 -14.7977 0.901789 22.1285
717 1 Ar 2.23525 8.8938 0.230329 0.335491 -0.205693 1.14012 -0.33264 -5.23952 0.686471
207 1 Ar 2.20857 8.99479 2.42857 -0.609843 0.316462 0.567869 -1.60234 -1.97298 19.1065
652 1 Ar 4.62715 8.62297 0.647281 1.09546 0.0193517 -0.489171 -10.3013 3.67631 -3.20832
204 1 Ar 3.35729 8.97272 1.58251 -0.144339 -0.994689 0.600979 -18.2264 12.1621 -2.1938
607 1 Ar 2.72576 7.91183 0.883335 -1.09676 -0.980121 -0.601167 15.7713 24.2899 -4.28239
3016 1 Ar 5.54083 8.21828 0.388314 -0.600761 0.218387 -1.58229 8.22286 -7.88901 -3.91478
297 1 Ar 5.78316 9.2416 0.674319 -0.315479 0.184533 0.126251 -4.75552 7.01256 2.24968
220 1 Ar 6.01994 7.32513 1.04619 0.177823 0.17516 -1.17499 -10.9352 -2.54503 11.6693
1014 1 Ar 4.81195 8.97414 2.17634 1.25322 -0.343735 -0.798356 9.04665 3.88274 -28.9045
628 1 Ar 7.23197 8.45759 0.0639942 0.319108 -0.963339 1.13864 6.73675 -14.0068 -17.5137
581 1 Ar 6.10047 8.92072 1.83226 -0.307929 0.681623 0.274926 3.62703 5.30137 1.60793
660 1 Ar 6.52417 8.46156 0.891097 0.571737 1.01955 -0.618521 1.89182 5.49189 12.2492
141 1 Ar 8.06875 7.81142 1.22825 -0.939991 0.907418 -0.60616 3.08111 7.25269 3.29093
224 1 Ar 8.46035 8.7462 0.0196414 -0.0961207 -1.32481 -0.738941 -2.13435 -1.2018 -5.34386
1018 1 Ar 6.45018 7.79022 1.90564 -0.463413 1.04617 -2.2357 7.74137 18.0091 -31.5263
623 1 Ar 9.03294 6.92352 1.2055 1.49225 0.731655 0.811862 -8.25776 16.6866 23.6002
3739 1 Ar 8.87762 8.66009 1.03021 0.158363 -1.15317 -0.85078 -1.30432 0.50702 -32.7778
3821 1 Ar 8.92842 7.78631 0.449835 0.136904 0.523993 0.290873 6.00908 -9.00873 -5.71893
586 1 Ar 10.8898 8.8084 1.05593 0.0933271 0.880778 -0.441427 -8.29158 -3.42322 0.0407117
186 1 Ar 10.0236 7.9236 0.905571 0.460853 0.615078 -0.278554 -2.47759 12.258 -30.9774
152 1 Ar 11.5907 8.50637 0.193602 0.296768 0.291768 -0.453859 17.0277 -15.678 10.2351
197 1 Ar 13.6506 8.47649 16.3897 -0.371895 0.16077 -0.170006 7.24362 -12.6475 8.52758
231 1 Ar 11.8765 7.288 16.1154 1.48364 0.0111915 0.8186 0.23945 20.9033 9.65206
195 1 Ar 12.3893 9.17572 0.254537 -0.271654 0.727295 -1.4482 4.45781 3.66346 -3.84102
353 1 Ar 12.4397 9.1575 1.35388 0.658423 1.15545 0.767012 15.8621 -6.07388 0.787304
1354 1 Ar 11.8885 8.06199 1.29903 0.313178 0.811464 0.810694 9.39361 3.63957 -24.1403
3798 1 Ar 15.1662 7.9559 1.58815 -1.76216 0.14335 1.2206 12.7667 4.25136 6.33864
3439 1 Ar 14.2843 8.7992 1.58317 0.398311 -1.92619 -1.29422 28.2994 11.3587 -13.0083
594 1 Ar 13.4648 8.39714 1.00042 -0.432117 0.0224647 0.0183176 -9.37843 3.61245 -2.4344
603 1 Ar 16.0232 8.30066 0.994802 -0.212677 0.624425 -0.299447 6.33863 -11.9408 -12.1463
1117 1 Ar 15.4513 9.02949 1.47425 0.472969 -0.370846 0.221249 -2.8258 15.4128 -8.25495
279 1 Ar 1.41468 9.81624 16.2209 -1.80705 0.306886 -0.443602 2.40242 -1.54021 6.29501
247 1 Ar 2.15448 9.96695 0.351681 -0.345471 0.452459 -0.443504 -21.0751 7.69742 -5.78241
649 1 Ar 2.8643 10.3708 16.5342 0.987743 1.49201 0.303875 10.779 7.56001 0.356219
638 1 Ar 3.74346 9.73753 2.27881 -0.21693 0.431293 -0.462662 65.4188 2.05382 -18.3253
217 1 Ar 2.88185 9.69161 1.00798 1.54898 -0.895788 -0.771082 10.4194 -5.14835 0.670398
647 1 Ar 3.43947 8.75757 0.333443 -0.120176 -0.137776 0.265578 -14.0049 24.9189 14.8112
1414 1 Ar 4.29953 9.44068 1.29191 0.604922 1.33202 0.440417 -4.58177 -5.67356 -0.285008
175 1 Ar 5.25566 9.75559 1.646 0.213087 -0.129492 -0.550683 12.0124 9.04743 -6.03756
1051 1 Ar 4.41321 10.4981 1.21041 -0.0970063 2.08722 -0.75327 -10.3478 -16.8545 -1.59385
655 1 Ar 4.97865 10.0567 0.458119 0.959519 1.52691 -0.0324932 -5.06516 -9.54241 4.27161
3904 1 Ar 6.2973 8.76966 16.5654 0.132055 0.422896 0.522241 -9.804 -2.0209 5.32919
1059 1 Ar 6.12078 10.996 2.32524 0.028113 1.9234 -0.00752957 5.1172 -16.3011 8.57652
304 1 Ar 6.83247 9.44718 0.387997 -0.546836 0.10514 -0.340404 -2.93725 1.32939 7.95999
665 1 Ar 7.76584 10.0415 0.525321 0.029932 -0.0237272 -0.0625924 -38.3888 -21.2212 -1.82384
3784 1 Ar 8.58355 9.76292 1.36662 -0.688449 0.0959879 0.310217 -16.7764 -9.69224 20.4135
3867 1 Ar 8.57965 10.5525 0.607035 0.0149414 -1.54846 0.584312 52.0323 28.688 -14.0158
260 1 Ar 7.93155 10.6754 1.36922 1.05302 0.193643 -0.464472 -18.3957 10.3852 14.777
253 1 Ar 9.69716 9.33982 1.5136 0.993844 -0.00660614 0.888217 -7.93494 -1.6805 -15.8196
3787 1 Ar 10.6246 9.89301 1.09123 -0.537622 -0.299428 1.08212 -35.2227 11.0613 3.27713
669 1 Ar 11.5363 9.6221 1.35515 -1.78701 -0.744892 1.42559 18.4382 19.4907 8.3518
309 1 Ar 12.5564 10.483 1.67327 1.93587 1.17439 -0.748544 -0.472167 1.27794 -3.90805
636 1 Ar 12.4677 8.40613 2.13651 -0.926591 -0.567754 0.359355 7.58701 4.46387 1.77683
271 1 Ar 12.8081 10.1514 0.311842 0.498703 1.68304 0.617299 6.51575 8.40237 9.32553
996 1 Ar 13.7243 10.2006 1.19476 -0.961169 0.00282897 -1.09524 4.65264 -9.37184 20.5157
194 1 Ar 14.6355 9.58513 0.903454 0.714092 -0.0763106 -0.920541 2.60907 2.79676 0.0434153
671 1 Ar 15.3864 10.3932 0.0595377 0.555442 -0.479966 -1.65403 -7.95375 -2.55218 -2.68272
1073 1 Ar 14.9939 10.5468 1.15587 0.491945 0.587323 -0.246561 -2.27693 3.49557 -2.14848
273 1 Ar 14.0281 10.8207 0.424203 -0.895031 1.66355 -0.514527 1.80134 11.0918 -2.61849
199 1 Ar 16.6058 10.2282 1.88682 1.12023 0.0741241 -0.562524 6.5052 -5.09633 -6.86853
315 1 Ar 15.9693 9.80285 0.726572 0.650927 1.54117 -0.371104 2.09256 -2.6628 6.18488
634 1 Ar 0.153463 9.37539 1.00751 0.941791 -0.900742 0.351734 0.754119 -7.60908 18.6633
241 1 Ar 0.512339 11.3488 0.927051 -0.193293 -1.1859 0.300602 0.0521344 11.3702 -4.64241
685 1 Ar 1.13501 11.8137 1.61057 1.03256 -0.27231 -0.824954 -33.7756 6.18552 -4.90179
208 1 Ar 16.6199 10.7254 16.288 0.192361 0.219002 0.274242 -4.3882 1.77263 9.82595
212 1 Ar 1.13362 10.897 16.214 -0.459123 -0.431345 0.0518484 -15.1291 -2.26228 -10.533
648 1 Ar 1.70757 11.2029 1.00967 0.780988 2.44717 0.0162516 -15.6648 -15.6389 5.13445
245 1 Ar 1.67955 12.1364 0.498976 -3.26364 -0.152078 -0.644492 -23.2512 7.0276 -3.51879
1090 1 Ar 1.90521 11.6926 2.20076 -1.39633 0.783327 0.832781 37.4608 0.91497 14.3606
689 1 Ar 2.64981 10.8296 0.82792 -0.739529 0.270639 0.210536 23.8571 -21.1668 0.81864
1056 1 Ar 2.81574 10.8698 2.00833 0.677143 0.0422066 0.837324 -7.70201 -26.54 5.32456
1089 1 Ar 4.16322 10.8764 0.121668 -0.495617 1.20733 0.710311 -12.2067 -29.8043 8.21549
616 1 Ar 3.9035 11.0194 1.94976 -0.28624 0.770758 -1.1221 -1.50376 8.69525 9.42301
691 1 Ar 4.7999 11.4105 1.055 -0.544601 -0.531686 0.856528 12.0814 18.5503 2.3626
1417 1 Ar 5.7452 10.6455 1.1579 -0.0245529 -1.33893 -0.113106 -4.53717 6.54324 -5.81124
250 1 Ar 4.31807 11.8518 0.225618 0.502923 -0.357547 -0.852298 -0.181469 33.614 -2.92585
3895 1 Ar 6.34657 11.3822 0.396679 -0.116825 1.36389 0.740681 -2.77747 -0.490466 12.8346
259 1 Ar 6.80263 10.4757 0.660219 -0.4058 0.223547 -0.251072 9.88479 0.724527 14.5472
1455 1 Ar 5.83518 11.6428 1.6179 0.675872 0.650792 1.12084 3.16235 9.50303 -37.3706
1422 1 Ar 7.36543 9.70815 1.46073 0.951276 -0.0115799 -1.42092 2.47566 8.43608 1.90774
232 1 Ar 8.58968 11.5837 1.22101 0.196312 0.498584 -0.364853 -4.09062 -1.61846 9.58122
302 1 Ar 7.57909 12.1067 1.27022 -0.796021 0.473391 0.732877 -3.11448 5.84043 -18.1031
300 1 Ar 7.53117 11.3834 0.329225 -0.429271 0.881999 -1.19621 -7.13903 5.10547 17.8457
668 1 Ar 9.8532 10.4805 0.649501 0.718538 1.12308 -0.438894 0.740935 5.57265 -9.32926
626 1 Ar 10.8227 11.1638 0.860903 0.609854 -0.315591 -0.167658 -9.27676 8.07366 11.8983
3832 1 Ar 10.1722 11.4363 0.0560181 -0.0853859 0.570517 0.195674 -1.28419 -8.97851 -4.89134
1461 1 Ar 9.75681 11.6369 1.0178 0.668823 0.301715 -0.118009 1.46343 -4.54549 12.986
3866 1 Ar 11.3874 11.5202 -0.0126873 -0.0889882 -0.0812061 -1.08933 14.0602 24.6576 10.9386
1070 1 Ar 13.1236 11.5031 1.97326 0.316868 -0.257917 0.573303 -3.7112 -7.02041 -6.64941
270 1 Ar 14.0547 11.2947 1.55963 0.271356 0.400308 -0.102704 -6.34374 14.9491 -23.9599
351 1 Ar 13.1428 11.0452 1.04 -0.469243 0.577495 1.16581 -1.42465 10.2148 -16.0867
3876 1 Ar 14.5454 12.2441 16.3731 -0.390684 0.13016 -0.355117 14.7826 -43.4056 -22.9468
360 1 Ar 14.2783 12.1012 0.636847 -0.753859 0.16272 -0.755986 0.942119 -2.215 3.37653
3884 1 Ar 15.3398 11.5834 1.58512 -0.80032 0.179719 0.608874 -9.55758 -9.22017 -5.41584
275 1 Ar 15.8268 11.3763 -0.00742325 0.26004 -0.672682 -0.510698 6.19591 -20.0039 -10.1448
321 1 Ar 16.2092 11.8458 0.859781 1.01505 -1.69754 -0.526251 5.52718 7.82578 8.81732
726 1 Ar 16.6609 12.6406 0.229733 0.303914 -0.0584921 0.53822 -12.4616 10.8807 18.5027
687 1 Ar 16.0325 10.8332 1.18909 -0.0984572 -0.683734 1.00197 -3.44358 1.75864 3.93477
288 1 Ar 0.630571 12.581 0.993619 0.821005 -0.00994246 -0.0346119 4.82249 1.06378 2.48575
368 1 Ar 0.595483 13.6644 0.509499 1.11347 0.572685 -0.554545 -6.94276 -4.80366 -8.37288
692 1 Ar 2.1505 13.5147 16.4021 -0.711022 0.134817 0.302136 38.3181 -39.6898 18.2433
686 1 Ar 2.71207 13.0202 0.952195 -0.243726 0.165419 0.433425 -10.0305 -17.325 9.53497
361 1 Ar 2.64585 14.5283 15.7028 0.422614 1.5094 1.24195 -17.7019 5.94323 0.520266
725 1 Ar 1.7904 13.6164 1.63946 0.117318 -0.342007 -0.811232 -1.82948 -0.784364 -5.78855
3925 1 Ar 2.80602 15.0299 0.7132 0.526496 1.11575 -0.532073 -18.2844 27.2034 5.1231
762 1 Ar 3.70266 13.5856 0.428412 0.917529 0.497446 -1.84895 -10.4302 5.50622 1.14985
690 1 Ar 3.60718 11.5323 0.987474 0.679591 -0.371723 1.25334 -2.47118 -18.5107 -0.288456
650 1 Ar 5.53542 12.494 0.890619 -0.262627 0.94988 -0.869616 -2.87192 -1.40454 0.685715
1456 1 Ar 3.24782 13.1722 16.3263 0.270771 -2.85433 -1.35291 4.30467 -0.883212 18.5451
332 1 Ar 5.26386 13.0449 16.6319 -0.501015 -0.508171 0.344657 12.2705 3.78695 -0.63413
730 1 Ar 4.54614 12.8403 0.949397 1.62186 -1.18618 0.420513 -5.13506 4.71212 -8.37093
1094 1 Ar 6.26507 13.0264 0.0976774 -0.728622 -0.311573 -0.856748 8.6861 -3.70146 3.25729
3900 1 Ar 6.56521 12.3638 0.940781 -0.464538 -2.27529 -1.83186 12.2244 -7.07507 -3.7553
339 1 Ar 6.6429 13.6925 1.4304 0.537019 1.49145 0.472006 5.48623 -5.91792 7.35872
295 1 Ar 8.29224 12.9726 0.620601 0.026359 0.902314 -1.41144 7.17888 -3.24678 1.16126
296 1 Ar 7.27339 13.1997 0.708991 -0.776917 -0.0385259 -1.13514 -9.02567 15.9836 22.994
305 1 Ar 9.02232 13.3736 16.6074 -1.7268 0.378936 -0.364227 5.85652 -4.9694 6.17874
1538 1 Ar 9.07043 13.5119 1.1639 0.940246 -0.0308142 1.58183 -5.92397 14.7606 20.0568
662 1 Ar 11.3399 12.1873 1.43539 -0.877745 0.240799 -0.902151 -19.2845 -42.6776 -21.3386
707 1 Ar 11.75 12.7846 2.08755 1.49482 -0.908436 1.29053 14.7422 29.704 22.3965
747 1 Ar 10.0359 13.7558 2.01116 0.668055 0.361463 0.145948 -4.22367 -3.16547 -2.18663
3941 1 Ar 10.789 12.3005 16.0501 -0.255183 -0.896623 0.462745 -23.3761 -1.50309 8.13569
3512 1 Ar 12.2029 11.7123 1.11029 -0.687903 -0.105596 -0.879685 11.2055 9.57114 7.46157
749 1 Ar 12.1186 13.9483 1.11399 -0.0863907 1.19572 -0.744019 -9.3362 -12.2894 9.51556
346 1 Ar 11.0491 14.2874 0.974393 -0.0066292 0.380006 -0.124694 -11.0364 -10.0552 7.38641
385 1 Ar 11.5264 12.9685 15.9164 0.314368 0.0142991 -0.0783669 6.1514 17.2948 17.554
354 1 Ar 13.2653 13.2603 16.5422 -0.145817 -1.23115 0.268892 -5.21596 -0.0649124 17.9053
387 1 Ar 11.5372 12.5549 0.389318 0.714552 -0.396758 0.436708 13.4495 -28.8466 0.0741217
3912 1 Ar 13.1507 13.4705 0.782667 2.2629 -1.3489 -0.825829 2.96355 3.6788 4.60422
3591 1 Ar 13.1539 12.3194 0.810083 -0.443483 -0.639741 0.476277 8.28593 -9.06717 -14.0344
3959 1 Ar 14.332 13.1587 16.5599 -1.07555 0.0606905 -0.284302 -16.2162 37.661 5.54448
670 1 Ar 15.1649 12.5503 1.27507 0.136084 1.02087 0.91784 -8.38399 11.3548 -18.3425
356 1 Ar 13.443 13.4558 2.24497 -0.367717 -0.496835 0.607519 26.8733 -20.8265 15.1393
3924 1 Ar 14.3618 13.191 0.8552 -0.380486 1.49005 -1.7781 -0.0718136 8.72103 -1.96346
318 1 Ar 15.4047 12.2672 0.202113 0.665296 0.134198 -1.56425 -3.76981 22.182 6.37699
282 1 Ar 1.11264 15.4246 15.9291 -0.526112 -0.308841 0.307881 5.92535 -6.27394 16.7099
758 1 Ar 0.695019 14.728 0.10179 -1.43077 -1.30721 0.620593 -1.94286 0.965631 3.24103
1171 1 Ar 1.65307 14.6232 0.700111 -0.727982 0.530728 -0.566446 -1.65739 -5.64954 -0.461941
365 1 Ar 1.41018 15.5539 0.181845 1.40151 0.554091 -0.18678 -15.1936 -52.5915 -17.3565
3 1 Ar 1.82463 14.4261 16.4016 0.508211 -0.851935 -0.180697 -15.8655 44.1386 16.3127
17 1 Ar 4.25506 14.981 1.77919 0.397955 0.409701 -0.963337 2.18744 -24.8815 -14.9749
376 1 Ar 4.16494 14.6974 0.381083 0.893575 -0.884209 0.180723 -4.64217 7.9848 11.9718
736 1 Ar 5.06011 14.0278 0.304158 -0.289969 0.350195 -1.39062 -11.736 5.19496 2.15841
3580 1 Ar 6.05526 14.3677 1.98255 0.496822 0.815331 -0.908221 -2.40344 -13.5857 1.90237
694 1 Ar 6.58399 13.9792 0.433044 -1.01729 1.39567 0.168401 -2.42909 7.23837 -5.58909
3940 1 Ar 7.34111 14.6399 1.08625 0.116515 -0.361199 -0.863452 1.03825 -12.3703 9.00882
3981 1 Ar 7.65926 14.0787 0.188573 0.477023 0.404895 0.310914 6.61245 22.0669 28.2668
337 1 Ar 8.55922 14.4183 1.20006 -0.769197 -0.495371 0.291878 -3.76733 6.13408 1.66698
698 1 Ar 7.75381 13.821 1.68465 0.380665 -1.51731 1.28023 3.1885 -5.8187 -1.25801
308 1 Ar 9.24034 14.3556 0.146006 0.637609 -0.883926 0.452178 -5.79848 -0.129524 15.8028
746 1 Ar 11.0848 13.3898 0.0954504 0.526205 2.15375 -0.301232 2.92895 16.6287 1.94481
381 1 Ar 12.1134 15.2421 16.4257 -0.824804 -1.67883 -1.43475 -27.7993 -13.1925 -9.59403
352 1 Ar 11.7911 14.9746 0.877984 -0.208978 -0.143373 -1.25183 -16.3526 3.22641 -8.75061
350 1 Ar 13.087 14.1509 1.65159 0.320854 0.702183 -0.516953 -0.705421 39.6923 -31.0619
3950 1 Ar 13.9876 14.4997 1.22119 -2.27956 -0.94805 -0.524167 -21.4015 14.4693 13.992
39 1 Ar 14.9006 14.1243 1.30487 -0.929151 -0.140825 0.563061 24.5332 -6.65371 -1.43103
681 1 Ar 13.5073 15.3091 0.600601 -0.948416 0.00842399 0.065531 -8.20489 -7.25295 -18.1998
317 1 Ar 16.6543 14.1633 1.01175 2.12201 -1.76237 -0.580572 -5.91565 -49.3049 -11.0423
357 1 Ar 14.8305 13.9923 0.102769 1.21002 0.134781 0.349093 26.1147 -1.59675 -3.87633
1078 1 Ar 15.9435 14.3203 1.80852 -1.07543 0.512612 -0.922043 -9.74806 11.5832 -2.73316
724 1 Ar 15.6022 14.5688 0.529313 -0.364211 -1.96052 -0.101631 7.29826 2.74513 4.66763
3607 1 Ar 16.4078 15.0066 16.6976 0.447053 -0.252325 -0.581175 7.33413 -15.1694 -9.69964
45 1 Ar 0.508637 0.518107 0.863282 -1.5337 0.124995 -0.46737 25.716 -6.76483 -3.85709
761 1 Ar 3.55769 0.0291931 0.580069 -0.240702 0.176382 0.0520704 -10.7274 -23.1599 -14.2746
49 1 Ar 2.75235 16.1469 0.85856 0.517505 -0.110111 -0.133449 -13.4133 -5.61163 21.6728
364 1 Ar 2.65181 16.4346 16.5343 1.05227 -0.467323 0.141309 -7.94595 13.3063 17.5246
3929 1 Ar 1.67375 0.459794 16.479 1.10652 1.53229 0.497889 38.8321 29.2658 -7.99684
459 1 Ar 4.14272 15.6128 0.923739 -0.452203 -0.163991 -0.202999 -5.75834 7.87001 12.1534
374 1 Ar 4.59635 16.5542 1.39261 0.272581 -0.450342 0.540706 1.55933 1.57387 -0.803692
3971 1 Ar 4.5834 15.9069 0.0296621 -0.875631 -0.124438 0.579265 -11.2491 -1.4057 3.43428
3977 1 Ar 6.37184 16.7136 2.2398 0.0777706 0.258786 -1.14327 1.90631 -9.83643 -1.25132
380 1 Ar 5.28839 16.4716 0.582634 -0.356469 -0.0226137 -0.972052 -1.88791 18.6126 12.588
740 1 Ar 6.38677 16.1469 0.967103 -0.389323 0.453001 0.0479439 -11.6975 -8.38715 -1.4289
336 1 Ar 5.25916 15.4064 1.06085 -1.15394 0.00684502 1.32079 -5.0867 5.21412 -0.520831
3939 1 Ar 6.24031 15.3702 1.91234 -0.360094 -0.202621 0.691545 -0.788181 11.1238 -9.09144
460 1 Ar 7.37258 16.6797 0.780662 0.81168 1.54251 -0.0943927 8.70049 -14.5938 -7.07666
733 1 Ar 7.12443 15.3902 0.416288 0.154553 -1.77326 -0.0534856 -1.6994 12.8651 -19.7289
3575 1 Ar 7.20048 15.6648 1.40693 -0.507607 -0.960454 -0.562069 13.6872 3.89312 13.4313