ITEM: TIMESTEP
9100
ITEM: NUMBER OF ATOMS
4000
ITEM: BOX BOUNDS pp pp pp
0.0000000000000000e+00 1.6795961913825074e+01
0.0000000000000000e+00 1.6795961913825074e+01
0.0000000000000000e+00 1.6795961913825074e+01
ITEM: ATOMS id type element x y z vx vy vz fx fy fz
798 1 Ar 0.49024 1.38523 0.152974 0.208396 -1.2288 -0.724002 -12.384 -3.49008 0.384006
45 1 Ar 0.944047 0.669793 1.12383 0.25972 0.896209 1.09246 -13.8309 -12.2495 -9.45136
12 1 Ar 1.38545 1.53503 0.655409 0.415121 0.00145362 0.290248 4.69225 16.6671 33.4138
46 1 Ar 2.82421 0.42817 0.307201 0.603509 0.279641 -0.154382 0.598868 32.0785 29.1453
442 1 Ar 2.32606 1.38103 0.0936241 1.00901 -0.449834 -1.24503 1.32367 9.5324 -6.72046
47 1 Ar 2.59763 1.1455 1.09593 1.49766 0.0334454 -0.44032 8.67639 -19.6784 2.19711
401 1 Ar 1.99882 0.191809 1.02067 0.99929 -0.172603 -0.245285 -14.1624 20.9255 10.8032
91 1 Ar 4.1544 0.514358 1.60219 -0.628235 1.45637 0.523497 -15.768 -3.74919 13.3456
489 1 Ar 3.78855 0.951068 0.804731 1.04551 -0.491921 -0.56747 -17.1173 13.0569 -32.0432
500 1 Ar 4.53806 1.57906 1.30587 -2.43082 0.52861 0.150111 -10.0322 -9.68444 -3.85005
761 1 Ar 3.75501 16.6352 0.546553 -0.625846 0.371192 0.477629 0.944961 0.662524 2.43382
16 1 Ar 4.81147 0.339887 16.7166 0.436448 0.402682 0.0949169 -6.06231 3.11916 6.12132
457 1 Ar 5.31667 0.998954 0.761053 -0.323655 0.706356 -1.1776 0.913121 -2.25078 -1.12466
334 1 Ar 7.21326 0.866211 1.39542 0.18623 -0.616385 -0.0859842 1.87242 17.7051 6.16954
780 1 Ar 7.12527 1.2668 0.390899 0.800572 -0.939597 -0.298438 11.2523 -43.9416 -3.4228
15 1 Ar 6.1525 1.49773 0.144327 1.25035 0.16843 0.465641 5.54128 15.9159 5.27006
774 1 Ar 6.26954 0.433731 0.964741 -0.269984 0.669795 1.59524 4.28194 4.86816 -7.491
383 1 Ar 8.38758 0.46525 0.231316 -0.437922 -0.724845 -0.849584 -19.2167 -2.9832 -11.2606
58 1 Ar 8.32012 1.12894 1.03924 0.213907 1.0198 1.30821 21.8752 -0.138352 -12.0467
3944 1 Ar 9.21416 0.281468 0.807462 -0.334835 0.373346 -0.433734 8.61727 -10.8291 19.2713
3627 1 Ar 9.29805 1.27902 0.485677 -0.210214 -0.0765322 1.69348 -11.7445 6.66025 -14.2071
505 1 Ar 10.2722 0.524066 0.238079 0.0709682 1.34538 -1.0453 -2.79047 -2.50654 -2.27835
21 1 Ar 9.78212 1.08397 1.40173 0.238437 -0.586317 0.459883 1.62744 -1.5466 1.127
419 1 Ar 9.28947 0.100496 16.5642 -0.453011 -1.6831 0.31834 2.35887 -0.733046 -7.55906
474 1 Ar 11.1307 0.0468295 0.746365 0.777215 0.59238 -0.940864 -19.6286 13.2001 45.6595
29 1 Ar 11.5829 1.00945 0.905778 -0.163649 -1.90122 -1.52918 5.37796 17.0128 11.3074
388 1 Ar 12.9904 1.07206 1.12347 0.307039 -1.26406 0.173356 -31.683 -29.7552 12.2203
3991 1 Ar 12.9504 0.424747 0.112019 0.695474 -1.27859 0.0991004 -16.8667 -4.86842 5.59295
429 1 Ar 13.9114 0.536729 0.859603 0.973127 0.317278 -0.221574 1.29539 -4.78174 -0.996652
33 1 Ar 14.872 0.348052 0.195051 -0.0502495 -0.149508 -0.876227 -7.02533 -1.99615 -0.572106
795 1 Ar 15.0153 0.408038 1.23165 0.96731 -0.763325 -0.478094 0.349389 -1.39994 -4.04344
35 1 Ar 14.6293 1.34059 1.13983 0.937105 -0.560955 0.364328 1.827 -17.799 5.50208
83 1 Ar 15.2774 1.26208 16.5442 1.42219 0.292395 -0.0418799 6.41303 2.49365 1.64223
79 1 Ar 15.7125 16.5191 0.49172 0.275896 -0.568075 1.51486 -6.85275 14.5079 4.29273
438 1 Ar 15.7053 1.32714 1.39047 -0.645463 0.27233 -0.412402 -29.0128 32.4511 -23.1281
764 1 Ar 16.5759 0.858305 1.30883 1.30646 1.09484 0.359599 26.0825 -41.9832 -12.8119
434 1 Ar 16.144 0.759192 0.36674 0.721297 -0.546524 -0.185191 -3.78425 1.7984 -9.70308
479 1 Ar 1.2998 2.68204 0.762276 -0.0582371 0.269168 -0.366262 4.19531 -54.0023 0.721141
3688 1 Ar 0.355832 2.47465 0.0182588 0.619569 0.70688 0.0214656 -6.59506 -8.1377 22.0186
487 1 Ar 2.23942 2.06566 1.15001 -0.260944 -0.0126278 -0.0777039 -17.0863 27.6469 -4.96743
10 1 Ar 2.29141 2.66585 0.163505 -0.255131 -0.842039 -0.0806716 -2.4544 -1.26068 -1.23881
1170 1 Ar 3.32943 1.73481 0.0811802 0.825942 -1.53823 -0.530292 -14.1745 3.38536 2.67376
413 1 Ar 3.3863 1.91447 1.16025 -0.0946734 0.566113 0.923999 0.293907 -18.4291 5.91184
1134 1 Ar 2.99281 2.86079 1.08219 0.284157 -1.24932 1.00058 -14.7558 4.04561 -4.19786
3689 1 Ar 4.01045 2.71064 0.886337 -1.52023 0.641642 -0.338757 14.3707 -1.64512 -10.4793
133 1 Ar 6.1564 2.70263 0.900902 -1.02145 -0.0743991 0.428452 -23.3721 -8.70889 0.0380851
414 1 Ar 5.2892 2.05556 0.421763 -0.609544 1.17354 -0.6567 -3.49752 1.59888 6.89159
95 1 Ar 6.42241 1.68304 1.32203 -0.43594 1.35358 -1.40412 30.0249 0.974829 -20.4602
3661 1 Ar 6.98984 2.21445 0.486773 -0.226802 -1.10731 0.327319 -8.60664 20.6848 45.1894
379 1 Ar 9.012 2.17725 1.11216 1.25638 1.08152 -1.0876 -3.71164 -8.9627 5.18229
64 1 Ar 7.63453 1.81628 1.16403 -0.483547 -0.614024 -0.043869 -26.5388 13.508 27.459
3695 1 Ar 8.0969 2.74136 1.28811 1.44309 0.91272 -0.627614 2.08168 14.3628 -12.5592
3701 1 Ar 8.22902 1.93867 0.340086 -0.254677 0.247114 -1.27391 10.443 5.50651 -9.81846
97 1 Ar 9.6452 2.87622 0.66813 0.717795 -0.782774 -0.118883 -1.13287 6.77027 -3.48816
912 1 Ar 10.5621 2.52708 1.09557 -0.694758 -1.48752 -0.378945 -5.38501 8.32993 7.34441
103 1 Ar 10.3127 1.58469 0.402371 -0.296155 0.466808 1.05624 8.51564 8.85338 -0.318838
31 1 Ar 11.3221 2.06927 0.580378 -0.507652 -0.493007 -0.797052 7.34268 -21.0218 59.0137
512 1 Ar 11.1015 1.73082 1.67088 -1.67352 0.266808 0.773993 19.267 21.604 -14.6607
71 1 Ar 12.4717 1.66502 0.391634 0.254073 0.676476 -1.13791 -2.70042 3.46105 -3.29773
469 1 Ar 13.7092 1.7129 0.98327 -1.58328 0.0334461 0.248033 0.321021 27.7696 -2.81681
67 1 Ar 12.1854 2.14852 1.44167 -0.817883 -0.909679 0.752107 -6.50625 -14.2186 -1.51439
1194 1 Ar 13.1138 2.58293 0.652043 0.192634 -0.410043 0.619584 0.912661 -0.379408 2.84111
3716 1 Ar 14.1619 2.75239 1.00874 0.0818248 1.2226 -0.56775 2.27411 -8.99466 5.46161
78 1 Ar 14.4693 1.9402 0.307799 -0.836595 -0.745476 -0.409737 4.35018 8.7051 -19.2223
441 1 Ar 16.3018 1.94764 0.726558 -0.426273 -0.22536 -1.58132 22.6321 -18.934 -7.3815
36 1 Ar 15.4584 2.40986 0.383285 -0.104717 -0.109936 -0.48303 -4.22286 1.14833 -2.83552
42 1 Ar 16.3859 3.09674 0.532674 -0.471959 0.953187 0.149397 8.31304 -10.5276 6.47844
523 1 Ar 0.751497 3.46533 0.541332 -0.96764 -0.260341 0.184365 -13.4892 3.84894 -19.7434
48 1 Ar 1.2837 4.35739 0.543867 -0.142033 -0.406619 0.304258 -2.58744 13.874 4.85
452 1 Ar 1.85979 3.4945 0.834245 -0.813131 1.74587 -0.514518 8.73391 18.6605 5.95762
92 1 Ar 2.70611 3.90612 0.420276 -0.173331 0.347929 0.267102 14.3992 -5.1622 1.10538
893 1 Ar 2.93596 3.81074 1.46826 -0.321336 -0.758114 -0.823709 0.895307 6.90851 -3.1151
486 1 Ar 2.29081 4.74643 0.85037 -1.08891 1.6844 0.39445 -10.6497 -3.21738 6.21123
3731 1 Ar 3.92039 3.82982 0.644454 1.04481 -1.20617 0.794053 -7.71982 -6.11965 3.79242
3692 1 Ar 5.74835 4.44274 0.596303 -0.419886 -1.25318 0.280203 0.409207 10.5878 4.12929
130 1 Ar 5.17817 4.00055 1.89748 0.0250459 0.320433 0.0672584 -4.88685 -15.1236 -22.8956
529 1 Ar 5.34058 3.46885 0.605141 -0.130875 0.842614 -0.442525 -12.8454 -14.4162 14.5173
132 1 Ar 4.62782 4.34111 0.0486357 -0.297794 -0.634644 1.51914 -2.25324 -0.542004 -9.0645
898 1 Ar 6.06698 3.6965 1.38986 -0.433741 -0.741194 0.601349 11.0706 0.589752 0.699454
90 1 Ar 6.80483 4.44901 0.335992 -0.156153 -0.419166 -0.127917 -28.5442 -17.899 -11.878
136 1 Ar 6.32634 3.432 0.19817 -0.215036 1.16598 0.225593 6.40439 12.0492 -15.1253
977 1 Ar 7.0812 4.39758 1.59321 -0.0350188 0.0779079 -0.585182 16.4651 -21.7272 -15.9884
3659 1 Ar 7.08988 3.41052 0.926579 -0.517741 0.746421 -0.700824 8.2585 17.6209 -10.8748
538 1 Ar 8.14233 4.40099 1.70646 0.233679 0.162811 0.8748 12.0535 0.0845262 -32.5065
974 1 Ar 7.76184 4.1513 0.47645 0.189324 0.119268 1.40078 15.394 -18.1137 -0.0895769
3741 1 Ar 8.91519 3.6986 0.541697 -0.281532 -0.807642 0.582038 3.25247 11.9325 9.9129
135 1 Ar 10.319 3.68062 0.39943 0.0532636 0.82748 -0.344046 -10.9665 -15.5837 -0.928819
494 1 Ar 9.74582 4.35255 1.17309 0.920585 0.208398 -1.6408 4.805 -3.28489 -0.666454
432 1 Ar 11.252 2.98636 0.356017 -0.467468 0.898915 1.36859 -1.87986 52.3801 8.30599
73 1 Ar 12.1438 3.05704 0.949293 0.111962 -0.729806 -0.827304 -8.5757 9.12366 8.8545
106 1 Ar 11.0923 3.66309 1.09404 0.567357 -0.117852 -1.52822 15.8589 -18.5609 32.6304
506 1 Ar 10.8403 4.52261 0.682731 -0.018245 0.0965672 1.07531 -3.40796 33.0827 -34.5189
66 1 Ar 11.8419 3.93479 0.195991 0.433289 -0.780092 0.495918 -5.40739 2.99371 6.64822
189 1 Ar 11.8178 4.57607 1.10593 -0.48633 0.642557 0.804517 -0.638736 -2.61464 -4.21206
3747 1 Ar 12.817 3.72996 0.506669 1.72558 -0.234351 -0.744046 3.63381 -7.46277 16.8893
146 1 Ar 13.502 4.39261 0.21242 1.63513 -0.577976 0.63466 24.9314 21.0085 -0.424207
475 1 Ar 13.5304 3.72682 1.56626 -0.397896 0.435749 0.268114 1.11391 14.7354 -17.4041
3674 1 Ar 14.2063 3.73175 0.698864 -1.81984 -0.219996 -0.0550527 -10.2324 23.6455 5.89597
3641 1 Ar 14.8446 3.21489 0.121326 0.681237 0.173935 -0.92029 13.6368 -0.744296 1.5393
115 1 Ar 15.2166 3.40941 1.19104 1.78822 1.09294 0.492769 -6.53683 -7.18259 -3.77589
3724 1 Ar 0.159005 4.18097 0.946651 0.314064 0.724218 -1.45354 -15.9971 -0.215414 18.3208
3642 1 Ar 15.7044 4.46309 1.01883 0.0169989 0.404311 0.187899 -12.9182 -1.11705 6.73819
154 1 Ar 15.8451 3.88802 0.171825 -0.0177973 -1.05646 0.294126 -8.35437 -0.757207 -5.99576
200 1 Ar 0.530981 5.16285 1.1671 -0.0431123 0.285446 0.702949 10.9759 3.46227 -2.80688
163 1 Ar 0.20736 4.7116 0.0835929 0.464102 -0.183895 -0.0281974 4.39245 7.68904 -16.8558
571 1 Ar 1.46551 5.4241 0.649271 -0.263795 -1.83249 -0.27268 0.700702 1.7542 -4.81587
3292 1 Ar 0.149188 6.00846 0.0752555 1.60727 0.806521 0.278524 13.5343 -19.9146 14.7944
157 1 Ar 2.64294 5.6905 1.15977 -0.447764 -0.671892 1.05841 6.89074 4.46435 8.91375
522 1 Ar 3.46897 4.83885 1.12472 2.02323 0.016784 -0.0629013 1.13583 -3.22674 -2.28825
3732 1 Ar 4.02883 5.57157 0.516376 1.10437 -0.688735 -0.675637 -3.27731 2.45037 -5.31544
174 1 Ar 4.73045 5.80116 1.32938 -0.826981 -1.08597 -0.590009 10.008 -4.19197 7.98447
129 1 Ar 4.63721 4.77963 0.988633 0.719067 -0.755015 0.784418 1.06469 -3.62625 3.37329
3296 1 Ar 5.79511 5.28208 1.30559 0.980731 -0.71893 0.32647 -8.31391 -1.8203 -4.90873
566 1 Ar 4.99248 6.10465 0.331674 -1.07243 0.868049 -0.244184 0.401239 2.7867 -3.90056
3735 1 Ar 6.38022 5.42885 0.437276 0.131342 -0.522717 -0.984136 -1.8666 -10.9725 -7.59426
139 1 Ar 7.33969 5.4903 1.72577 0.582114 -0.0402457 0.0510597 -2.99723 12.0964 14.9868
3740 1 Ar 7.41492 5.07899 0.817366 -1.01056 -0.305932 0.518375 17.3221 16.3819 -12.6945
219 1 Ar 7.95189 6.04935 1.02651 -1.0906 -0.109674 0.727074 -12.5907 -36.483 -55.0185
180 1 Ar 8.79786 5.28176 1.30159 0.0187931 0.584727 0.559366 -2.39526 3.64339 -3.62397
534 1 Ar 8.62294 4.7618 0.442459 0.053796 -0.315357 0.373537 3.23779 -0.582046 -6.92628
102 1 Ar 9.17952 5.76515 0.291531 0.397113 0.257094 0.796002 1.2972 -23.6432 8.12268
94 1 Ar 10.7629 5.69771 0.201754 -1.40941 0.140779 -1.39743 2.48826 -11.4744 -12.789
544 1 Ar 9.03898 6.36784 1.3275 -0.446686 -0.342722 -1.12634 28.423 -2.07843 -14.9832
104 1 Ar 10.1263 5.31291 0.968208 0.606499 1.09529 -0.648479 -4.74071 -2.84332 -9.56222
148 1 Ar 11.153 5.5531 1.23325 -0.562353 -0.0800404 -0.557553 8.66877 -2.33294 -4.74646
191 1 Ar 11.6363 5.11147 0.120599 -0.116231 0.286547 -0.587841 -25.1475 0.736249 12.375
155 1 Ar 12.5832 4.94961 0.405309 0.408244 0.033303 -0.288317 15.9565 -8.6029 0.79935
151 1 Ar 13.6703 5.34686 0.849097 0.412849 -0.0526601 0.47226 -2.04807 -5.57094 18.6467
596 1 Ar 12.9571 4.6854 1.33626 -0.448747 0.416014 0.47711 5.48809 -1.43413 6.03153
156 1 Ar 12.5962 5.91133 0.927799 -0.385949 -0.548464 -1.52154 0.696923 2.74624 0.422111
150 1 Ar 14.6519 4.92957 0.858872 -0.352452 -0.404548 0.674528 3.72502 1.88618 -3.88225
559 1 Ar 14.3285 5.9806 1.44011 -0.476601 0.777937 0.147882 8.94181 -27.1232 6.56632
605 1 Ar 16.6944 6.06063 1.14603 -0.551039 0.593629 0.0332511 -1.3528 -4.62321 -12.977
159 1 Ar 15.4649 5.96517 0.814781 0.769749 0.0619422 -0.820866 -9.83557 5.57346 -8.3614
3682 1 Ar 15.443 4.92437 0.00781125 -0.0290438 0.666404 -0.679542 0.949987 -4.22681 0.978721
3717 1 Ar 16.2318 5.27386 0.624669 -1.18262 0.313774 -0.679817 10.8014 0.731789 -9.3067
123 1 Ar 1.11006 6.29712 1.20579 -2.07027 -0.720072 -2.1088 -17.882 -9.05919 2.92707
126 1 Ar 0.945271 6.87737 0.368728 0.741246 -0.537054 -0.142895 7.36231 1.60737 -16.7983
599 1 Ar 0.137054 7.39033 0.752424 -0.369794 0.640798 -1.99632 -7.60567 -61.044 3.44994
173 1 Ar 2.08174 6.3263 0.52251 -0.999173 0.967098 -0.426155 -2.10052 8.64027 -4.34178
211 1 Ar 3.23203 6.79619 1.06477 1.52361 0.514127 -0.466766 -14.1438 -6.99158 8.67533
963 1 Ar 2.20101 7.33188 1.29798 0.066303 1.28487 0.877033 4.30519 1.0572 -14.2488
653 1 Ar 4.25715 6.70167 0.904904 0.439536 0.451681 1.3367 -1.91207 -17.9024 -11.7022
569 1 Ar 4.82852 7.54332 0.746841 0.174171 -0.398698 -1.6049 14.5815 3.90124 17.1486
220 1 Ar 6.06031 7.52277 1.01957 0.295598 0.0627655 1.00352 -16.6713 -5.71144 -7.14211
620 1 Ar 5.4802 7.10704 16.7042 -0.288605 0.332682 -0.971547 -0.0429069 -9.21371 0.0448718
3817 1 Ar 5.31268 6.69336 1.22951 -0.685806 1.7881 -0.788198 5.6877 -0.501246 -0.152287
3779 1 Ar 6.20711 6.44947 0.632783 -0.15111 -0.302786 -0.411019 -3.02443 11.0364 2.46241
3859 1 Ar 7.00263 7.36175 0.567072 -0.158977 -1.15685 -0.0126197 7.09819 -28.5926 19.8091
215 1 Ar 7.17667 6.09475 0.25159 -0.464451 1.17062 -0.869901 -4.68105 3.34167 9.47845
183 1 Ar 8.05797 7.01536 0.664235 1.49334 -0.664424 1.34816 17.0215 -16.5977 9.59227
623 1 Ar 9.04802 7.59688 1.17763 0.154794 -0.00102605 -1.74486 -6.16498 12.31 -35.7958
3836 1 Ar 10.46 6.61476 0.489557 -0.4071 -0.539908 -0.164286 4.83229 9.64529 30.4097
3384 1 Ar 9.09626 6.77921 0.318607 0.986887 0.608804 0.874752 0.767889 19.2037 -4.37619
539 1 Ar 10.2955 6.15495 1.5792 -0.613595 1.23659 0.0874232 27.6313 13.835 -13.0555
3785 1 Ar 10.1704 7.14857 1.59919 -0.0775261 0.343618 -0.876784 -13.298 -11.3559 13.2487
950 1 Ar 11.7682 6.38173 0.128115 -0.66488 -1.32216 -1.19068 -28.1531 -5.39538 6.42432
627 1 Ar 11.6236 6.86843 1.10435 1.09434 -0.45999 1.00251 0.886935 -1.87773 6.69174
187 1 Ar 11.155 7.49311 0.364857 0.0285801 0.209242 0.0849309 30.4298 -6.18041 -24.6381
989 1 Ar 13.5631 6.42208 0.534472 0.102527 -0.216702 -0.154627 -10.6655 15.6953 9.05318
196 1 Ar 13.7943 6.83502 1.52643 -0.126016 0.302422 0.244378 -20.8183 14.5137 5.52907
713 1 Ar 12.3773 7.2956 0.200671 0.463377 0.117341 0.0368341 -8.86017 -22.5082 27.5391
988 1 Ar 13.5578 7.62662 0.66439 -0.917364 1.43591 -0.762975 -4.10778 0.481311 3.58978
1074 1 Ar 12.7004 7.12944 1.17946 0.855627 0.413979 -0.251633 16.0036 -26.7493 3.27781
993 1 Ar 14.7506 6.83602 1.04175 0.361544 0.451716 0.335901 -11.9942 3.17165 -9.33822
3790 1 Ar 15.7287 7.05948 1.07535 -0.290204 1.31019 1.00769 16.8212 29.3369 -30.4994
922 1 Ar 0.455403 8.08371 0.162094 -0.177606 0.674642 -1.35403 5.12178 20.9207 -38.9361
201 1 Ar 1.34666 7.85116 0.822617 0.52886 -1.50912 -0.621885 0.989154 -7.77618 -0.211847
608 1 Ar 0.419222 8.26087 1.19426 0.402227 -0.912832 -0.251975 2.44984 11.6829 19.0652
238 1 Ar 1.08261 8.83054 0.466111 0.309665 -0.117097 1.43362 -18.8133 -7.85024 -11.4269
717 1 Ar 2.04552 9.09564 0.379688 -2.40246 -0.0837712 0.897062 7.57518 0.991338 -7.82436
607 1 Ar 2.67231 8.49093 0.88411 -0.817088 1.25144 0.740078 4.67123 -24.8179 0.0197819
1082 1 Ar 2.35656 9.08915 1.66299 -0.493998 -0.361951 0.757383 -42.4635 -9.46636 7.58756
647 1 Ar 3.61372 8.79529 0.612483 0.466268 -0.20186 -0.71186 6.33505 -25.3638 -8.2123
3774 1 Ar 3.69471 7.72458 0.801348 -1.22553 -0.798897 -1.11841 9.91713 9.67854 4.92065
652 1 Ar 4.6331 8.70261 0.546952 -0.483381 1.46772 1.07425 -28.9062 -16.4207 1.9173
3016 1 Ar 5.37562 8.15498 16.8051 0.202205 -0.740456 0.475141 12.1667 14.6044 3.85287
621 1 Ar 4.39665 7.87407 16.7021 0.1135 -0.237498 -0.0846795 -25.1787 2.32615 -19.8047
628 1 Ar 7.28785 8.36321 16.6934 -0.211245 -0.3618 -0.886351 -11.3334 8.7495 14.946
660 1 Ar 6.69498 8.57022 0.931518 -1.35969 -1.07827 -1.02611 -23.3666 -6.42407 -29.7256
3819 1 Ar 6.35644 7.81195 -0.00828489 -0.512381 0.390845 -1.10435 -15.4362 11.7485 -24.2477
141 1 Ar 7.73396 7.9125 1.00266 0.558975 -1.65965 0.260894 8.02465 17.9913 4.78603
224 1 Ar 8.29399 8.73646 16.7128 0.0993989 -0.410421 0.933204 17.8685 7.69034 37.0949
3739 1 Ar 8.57479 8.62079 0.994621 -0.317587 1.32945 0.221521 4.83548 -0.155482 4.85746
3821 1 Ar 8.71038 7.78346 -0.00112093 -1.43984 0.898171 -1.12134 8.22518 -6.7523 1.62312
613 1 Ar 7.61867 9.04424 0.745827 -1.38786 0.770709 -0.835205 15.1481 4.17593 -29.9218
186 1 Ar 10.4321 7.81901 0.933615 1.01188 0.0609259 1.51012 -20.1158 20.0694 -3.58341
3781 1 Ar 9.59023 8.44358 0.535014 -0.547569 -0.0717855 1.30906 -4.10493 0.51923 10.2954
586 1 Ar 10.5785 8.79218 1.2085 1.06092 -1.16434 1.12716 1.40254 18.1941 16.8716
152 1 Ar 11.7042 8.60898 0.157334 0.268463 -1.10645 -0.0126066 -7.82053 -2.2067 2.68629
1354 1 Ar 12.1165 7.94076 0.999853 -0.269583 -0.0247089 -0.893373 -13.1263 20.7269 4.41746
594 1 Ar 13.2659 8.7369 0.989129 0.779209 -0.626339 -0.55917 2.53504 -11.4917 -6.46512
193 1 Ar 14.3813 7.80691 1.41345 -0.283767 -0.404869 1.43367 -7.48343 -5.88807 -0.524844
3435 1 Ar 14.2267 8.49445 0.143578 -0.213014 -0.870458 -0.687521 8.75139 -11.2942 9.18425
603 1 Ar 16.2358 8.12587 0.774863 0.332642 1.46251 -0.216387 -22.5562 -16.5427 23.2008
1117 1 Ar 15.3957 9.24868 1.49724 -0.354424 0.20972 0.990927 6.18608 1.33276 11.8158
3395 1 Ar 15.1956 7.74361 0.442454 1.94606 -0.355001 1.99017 -4.10311 -2.31083 -2.4033
274 1 Ar 15.2208 8.79901 0.42726 -0.817034 -0.18303 0.914181 4.99383 8.7094 2.73527
3803 1 Ar 16.2912 8.87814 0.162686 -1.20824 0.638991 -0.00366374 7.26683 34.3342 -18.6337
634 1 Ar 0.161518 9.26422 0.908649 -0.531835 0.163209 0.187 2.73949 -22.4319 1.2897
236 1 Ar 0.0924671 10.2603 0.817713 0.181603 -0.95199 1.10974 0.80836 13.7533 -2.80465
206 1 Ar 1.341 9.61167 1.04213 0.0698257 1.47807 -0.160729 -8.96689 13.1365 11.636
1012 1 Ar 1.0803 10.6849 1.78086 0.9681 -1.05574 -0.264095 0.376742 -3.60249 -2.06958
645 1 Ar 1.0474 10.3689 0.341319 -0.802658 0.860227 -0.0615489 14.2234 8.74918 8.77028
277 1 Ar 0.332506 9.75579 16.7199 0.517285 -0.6963 -0.536986 16.0074 8.93412 14.3062
247 1 Ar 2.16445 10.0957 0.230067 0.495691 0.912389 0.0993241 -6.0801 10.828 -0.523832
217 1 Ar 3.03334 9.57733 0.839697 1.49801 -0.867033 0.0179826 -14.338 10.7795 40.1663
287 1 Ar 2.21587 10.034 1.37219 -0.351069 -0.720117 -0.499163 3.75576 32.1576 3.53527
1414 1 Ar 4.20946 9.4787 1.16693 0.0184607 0.70236 -0.0569798 20.9046 -11.6513 61.8096
1051 1 Ar 4.01293 10.5175 1.15267 -0.616689 -1.23125 0.783367 54.3787 -29.01 18.7761
696 1 Ar 3.93787 9.73743 0.295952 0.558122 -0.174947 -1.17402 -0.0875228 13.1741 -41.3262
297 1 Ar 5.52823 9.07717 0.650555 1.09922 -0.175089 0.472616 40.9452 42.9917 -10.6291
655 1 Ar 4.90734 10.159 0.363344 -0.155832 0.320088 -1.21605 -4.42383 7.5443 4.4616
1417 1 Ar 5.5683 10.9936 1.30384 -0.0695427 0.642918 0.215175 4.73266 5.90472 -7.42139
294 1 Ar 5.79551 9.96634 16.5855 0.608658 -0.996452 -1.72792 10.6153 -0.396632 2.12768
304 1 Ar 6.7488 9.67171 0.67002 -0.0770073 -0.667408 1.35646 -17.1288 1.14532 -6.7989
259 1 Ar 6.69908 10.7857 1.20552 0.666766 0.33315 0.46453 4.49314 -8.55205 0.700457
1422 1 Ar 7.36689 9.69788 1.51282 -0.531366 1.2105 -1.05769 8.6302 6.54391 1.86737
665 1 Ar 7.68517 10.0879 0.358114 0.194441 -1.0686 0.0598128 5.95009 -2.9335 -1.86317
3784 1 Ar 8.52686 9.71826 1.47696 0.372388 0.231566 -0.0815504 -17.3638 7.06704 -30.8026
3867 1 Ar 8.76561 10.6151 0.763071 -0.53651 -0.820104 -0.875798 -1.44815 -3.86657 6.82707
260 1 Ar 7.83975 10.6953 1.21125 -0.348971 1.69119 -0.1459 -8.9741 2.14285 15.5409
3823 1 Ar 8.78442 9.57779 0.423732 -0.268664 0.455795 0.703451 -0.433497 -5.50784 -1.13517
253 1 Ar 9.49698 9.15358 1.41417 -0.377482 0.801415 -0.711278 6.26722 -7.64153 -10.4521
3787 1 Ar 10.2811 10.0104 1.38705 -0.628202 -0.448454 0.938348 4.39225 -15.9199 14.7876
668 1 Ar 9.83029 10.6915 0.841691 -0.527719 -3.50917e-05 -1.00174 -14.6534 9.81558 -26.3358
1458 1 Ar 9.45822 10.8255 1.82628 -0.0965118 -1.26889 0.854721 -8.39214 -14.3233 -1.19485
669 1 Ar 11.3027 9.79328 1.48625 0.617604 0.593972 0.302089 20.8093 4.3718 -12.2508
582 1 Ar 11.2323 9.52499 0.427087 -1.3768 -1.08798 -0.0402268 2.10366 -4.41851 1.5385
227 1 Ar 10.6635 10.3769 0.278455 -1.54479 0.264026 -0.0190619 10.614 18.5767 -7.09165
195 1 Ar 12.7102 9.07731 0.0612845 0.551943 -0.905918 -0.615894 -0.120425 -7.07643 -4.97091
353 1 Ar 12.1762 9.18698 0.980322 -0.590351 -0.742567 -1.03777 -2.59093 -7.30218 2.62773
271 1 Ar 12.8868 10.1064 0.190136 -0.715744 0.211219 -1.69102 -2.35785 14.236 5.25923
996 1 Ar 13.8819 10.305 1.22224 0.182094 -1.70867 0.496177 -3.26041 17.3839 -15.1199
230 1 Ar 13.7387 9.42024 0.233723 0.965941 1.23005 0.80585 5.48745 17.163 12.0431
194 1 Ar 14.7274 9.71711 0.819216 -0.548001 -0.538983 -1.3853 -15.9255 -27.9146 -21.98
1073 1 Ar 14.8682 10.5292 1.35555 -0.0418991 0.348387 0.742793 31.2878 65.1458 -16.4313
671 1 Ar 15.2682 10.4598 0.413322 -0.234401 -0.439291 -0.436869 1.20596 9.40125 -20.9828
315 1 Ar 15.9762 9.83623 0.837349 -0.530473 -0.852381 0.684323 -10.4088 -14.5329 7.11173
241 1 Ar 0.315158 11.2013 0.612225 -0.622754 0.365817 -0.427887 30.3607 -0.980819 27.3691
648 1 Ar 1.86596 11.2886 1.19375 1.03329 -0.655368 0.0776611 3.22708 -11.8072 -19.9699
245 1 Ar 1.13696 12.0099 0.507826 0.245334 0.784904 0.0796262 1.90328 -4.01615 -5.93002
689 1 Ar 3.08708 10.5868 1.00254 -0.267532 0.483649 1.2287 -65.0234 24.3305 -9.0171
3892 1 Ar 2.86522 11.7753 0.906556 0.256096 0.0357349 -1.87942 -2.70248 -9.76302 4.62652
1089 1 Ar 3.9795 10.9011 0.220561 0.829228 0.430816 -0.869082 4.0708 0.495316 -28.7565
250 1 Ar 4.29637 11.9378 0.0196052 -0.723305 -1.37903 -1.32049 5.32854 -0.183051 -11.8872
690 1 Ar 4.09851 11.5251 1.02595 1.37422 -0.63076 -0.898199 -3.24739 13.9244 7.57824
3856 1 Ar 3.15426 11.6418 16.6423 -0.115944 -0.220795 0.637385 14.572 -2.92713 -8.75959
691 1 Ar 5.06096 11.9905 0.806919 0.370367 1.11512 0.664841 9.19012 -20.3868 17.6055
3895 1 Ar 6.34444 11.3341 0.447171 -0.638646 -0.794796 0.570979 16.5163 19.6158 -1.77342
302 1 Ar 7.84713 12.3067 1.16959 -0.795748 -0.847238 -1.09277 -4.26277 -3.27434 -13.245
300 1 Ar 7.42757 11.3306 0.460031 1.01051 1.45841 -0.144413 1.80687 4.56147 -5.75899
656 1 Ar 6.86517 11.7681 1.74819 -0.306199 -0.203833 0.672625 -20.5043 -6.82052 -9.88619
232 1 Ar 8.72607 11.6368 1.35425 -0.240594 -0.953759 -0.264077 -1.9863 -4.74755 2.55319
3427 1 Ar 9.08557 11.5275 0.349528 0.605922 0.176308 0.0891614 8.91143 1.55336 9.526
3832 1 Ar 10.1918 11.3563 0.0374698 0.399592 -0.605156 0.880473 5.08125 0.702681 11.046
1461 1 Ar 9.76833 11.6232 1.25786 -0.0425303 -0.96344 0.0159026 16.7596 22.3078 -7.88174
626 1 Ar 10.8382 11.1629 1.09662 -1.33474 -0.842819 -0.0807925 4.95148 6.77122 -39.3011
662 1 Ar 11.5186 12.0088 1.39144 -0.212543 -1.03076 0.629495 -20.8781 -1.8131 6.23186
3512 1 Ar 12.3682 11.9116 0.932921 -0.782068 1.79462 0.332447 37.2401 -16.1907 -19.5289
3830 1 Ar 11.8413 10.4423 0.585819 0.0298477 0.379076 0.332865 -6.27638 -0.417777 -6.12923
351 1 Ar 13.1138 11.0866 0.84513 -1.12179 0.520645 -0.880122 3.42009 -19.3239 -21.1308
3826 1 Ar 12.4641 11.1717 0.0755024 -0.334371 0.793771 -0.278483 -21.1049 10.1385 -6.01677
273 1 Ar 13.9947 10.8955 0.247919 -0.108309 -0.107349 -0.302106 -27.817 -6.45622 22.9782
360 1 Ar 14.7286 12.5209 0.833577 0.00342362 -0.148796 0.38854 -18.6423 -29.6222 -30.6457
321 1 Ar 16.0575 11.7068 0.973734 0.39575 1.81566 -0.500666 15.2857 5.87959 -14.4111
687 1 Ar 15.8314 10.9263 1.60242 0.588851 -0.218835 -0.344415 -1.75051 -10.0839 -37.6494
288 1 Ar 0.526256 12.9765 1.06363 -0.259052 0.484251 1.40557 19.5978 -2.78674 -1.78971
368 1 Ar 0.748692 13.4523 0.0727617 -0.0368415 -1.28625 -0.480492 -4.954 -11.4761 -8.76898
686 1 Ar 2.61744 12.9565 0.739644 -1.12047 0.217584 -0.274968 6.3046 22.7075 16.0598
646 1 Ar 1.92545 12.3636 1.42587 -1.21503 -0.859817 -1.5115 0.917644 -8.31726 -13.3842
677 1 Ar 1.58034 12.9752 0.582948 0.361315 -1.22127 1.74907 -11.475 -5.68895 16.902
762 1 Ar 3.80559 13.5632 0.341157 -2.21315 -1.48983 -0.0384169 7.01815 0.871638 28.2302
730 1 Ar 4.50619 12.8159 0.685203 0.0863404 0.264239 -1.81273 -7.88135 17.5787 -2.45764
729 1 Ar 3.47873 12.4805 0.412088 -0.989405 0.593464 -0.614491 8.46266 8.16265 -3.02515
650 1 Ar 5.62633 13.0404 0.708789 0.668611 0.251209 0.285559 -4.66666 -5.06904 8.94327
700 1 Ar 5.6788 14.1663 1.31513 -0.0887916 1.96215 -0.43617 -2.85102 -7.10148 -6.05327
1094 1 Ar 6.50263 12.8976 0.102053 1.44607 -0.346362 0.542469 -30.6476 6.99048 0.0632804
3900 1 Ar 6.70232 12.5444 1.06346 -0.290874 2.29871 0.227049 1.62177 6.55186 1.00653
339 1 Ar 6.69541 13.7947 1.55326 0.366557 -0.277704 0.522995 24.6943 13.4471 -11.4514
296 1 Ar 7.19796 13.5047 0.580862 -0.938245 0.242494 -0.514615 0.875019 3.82274 2.38883
3056 1 Ar 7.44825 12.5417 0.174706 -0.244336 -0.294644 -0.644724 13.8946 -9.06744 -2.67065
295 1 Ar 7.97621 13.3246 1.1943 -0.800888 0.312373 1.74427 20.1986 -0.124474 2.76084
1538 1 Ar 9.17583 13.4486 1.17713 -1.12679 1.15 0.247363 6.30067 -12.2597 1.4479
301 1 Ar 9.38043 12.5462 0.496205 -0.37709 -1.26132 -0.16453 12.4776 -7.47417 18.4366
3937 1 Ar 10.5895 12.2107 0.655001 0.355715 1.60242 -0.78572 -18.5266 -4.63947 9.46009
3943 1 Ar 10.2568 13.411 0.907666 -1.56444 -0.996591 0.466826 -30.9644 -3.26594 14.9693
387 1 Ar 11.5377 12.4972 0.431202 0.23787 -0.511679 0.380263 32.7741 -22.7302 -32.2656
746 1 Ar 10.6972 13.1551 0.0636157 -0.972626 -1.09117 0.0799119 15.628 -9.51836 -30.0212
1185 1 Ar 11.2701 13.2221 1.01459 2.08734 -1.34936 -0.387056 -16.2341 13.9927 20.1887
3912 1 Ar 13.3079 13.2208 1.17198 -1.02107 -2.39865 -0.664197 -0.787314 6.45283 1.22173
3591 1 Ar 13.4605 12.1942 0.861347 0.257055 1.34692 -0.162429 -2.74366 2.75518 21.3735
316 1 Ar 12.2331 12.8984 1.22231 -0.875323 -0.433506 -0.202961 8.40994 7.70201 10.5511
3556 1 Ar 12.2046 13.3932 0.267644 0.334551 -0.27738 -0.87793 -17.1073 0.0306842 3.93295
670 1 Ar 15.1892 12.9192 1.61945 1.61781 -1.14834 -2.27683 19.7379 -1.99083 -8.5222
3924 1 Ar 14.3677 13.4663 0.882071 -0.245013 0.0950528 1.20567 -20.8514 11.2749 11.9169
726 1 Ar 16.4101 12.6832 0.598844 0.205272 -0.026116 -0.00319785 9.21058 5.49864 -5.22846
318 1 Ar 15.5336 12.3504 0.220533 -0.201504 0.557909 0.721583 0.803167 -27.2349 -0.088129
244 1 Ar 16.4092 13.2184 1.47442 -1.18053 0.221773 0.93603 -27.1406 2.75229 3.18995
3926 1 Ar 15.3918 13.3129 0.640586 -0.562813 -0.360484 -0.657165 18.8883 8.20594 -12.0033
758 1 Ar 0.499386 14.45 0.190095 0.604619 0.712245 -0.684274 -1.00232 15.9343 -1.07949
359 1 Ar 1.02303 14.9558 1.08058 -0.356395 -0.443164 -1.22966 -12.464 15.5612 -4.66585
3925 1 Ar 3.05651 15.3129 1.2808 0.641581 0.0331667 0.711882 -5.96406 -0.898895 8.73655
1171 1 Ar 1.22552 13.9735 0.862262 -1.27166 -0.0650803 -1.87706 6.94148 -9.96256 5.66881
367 1 Ar 2.71784 14.1394 0.627923 -0.946717 1.16145 -0.00467417 -4.44686 -1.4588 10.2767
376 1 Ar 4.15076 14.6642 0.286955 1.01799 -0.295902 0.347326 18.8205 7.25989 -27.5129
7 1 Ar 3.65444 14.4678 1.10521 -0.193869 1.34048 1.64531 -10.9516 -19.3771 32.263
770 1 Ar 4.74046 13.8287 1.06956 0.428321 -0.636015 -0.564283 -12.0648 -2.62703 -5.73637
736 1 Ar 5.54969 13.9444 0.157895 -0.00149893 -0.0139452 -0.933973 -33.9455 -2.3342 -5.63803
694 1 Ar 6.46162 14.207 0.401401 0.041737 -0.541319 0.0744038 15.1471 7.20268 14.1627
3940 1 Ar 7.34579 14.5548 1.04247 1.40157 -0.0709074 0.086891 -1.56717 -7.73276 3.62352
370 1 Ar 6.12137 15.0493 1.20094 0.0374392 0.0470532 1.53582 25.5393 19.7932 -2.78535
3981 1 Ar 8.14909 14.1146 0.273533 1.43209 -0.496312 0.568209 -13.0598 -4.61344 6.03637
337 1 Ar 8.53134 14.2477 1.28086 -0.464301 -0.312238 -0.0266245 -39.7483 5.87965 29.8051
3979 1 Ar 8.10266 15.1454 0.603612 0.466617 -0.56374 -0.641424 2.19433 5.85253 -22.166
308 1 Ar 9.20888 14.3893 0.603293 -0.541746 2.23176 0.281015 32.208 11.5082 -32.2181
745 1 Ar 10.0317 14.82 1.25754 0.363136 0.0437125 -0.684553 -7.04293 3.23021 0.823881
749 1 Ar 11.8282 14.0915 1.07493 0.00488217 -0.216316 -1.18472 43.0674 9.05484 10.9535
346 1 Ar 10.8511 14.1801 1.23254 -0.117208 -0.555261 0.154188 -12.3214 13.165 9.34263
352 1 Ar 11.6176 15.0926 0.639923 1.19023 -0.646437 0.39758 -1.07737 -7.54134 -1.50626
433 1 Ar 12.3106 15.2017 1.43375 -0.161237 -0.846451 0.809674 19.3998 -12.4944 -52.5172
3955 1 Ar 12.5616 14.5239 0.421887 0.82759 0.127624 0.329244 6.52194 2.72569 -8.27377
3950 1 Ar 14.0753 14.6131 1.1986 0.777609 0.728029 -1.46005 3.64116 -12.0452 -10.8899
39 1 Ar 15.0573 14.1373 1.19263 1.3651 0.608547 1.3036 -5.75719 10.4992 29.2089
357 1 Ar 14.7849 13.9238 16.5956 -0.209101 -0.00181039 -1.49343 8.77249 0.0806824 -1.54704
722 1 Ar 14.5822 15.1103 0.413055 0.628155 0.654344 0.723442 3.71141 -14.7901 -25.5408
314 1 Ar 13.8098 14.1493 0.173551 -0.464927 -0.175249 -1.19482 7.9678 21.3704 10.7448
317 1 Ar 0.0505072 14.0709 1.06226 1.53018 -0.658484 -1.24482 16.0616 -0.857904 -22.6358
724 1 Ar 15.7868 14.5208 0.632838 2.04178 1.04185 0.843009 19.8638 10.0823 -20.3124
1083 1 Ar 16.6047 15.1964 1.10464 -1.17311 -0.30551 2.42604 0.891422 3.05496 -12.4938
365 1 Ar 1.34535 15.3199 0.0608751 -1.46476 -0.395147 0.259782 25.8121 0.832363 26.6613
325 1 Ar 0.4028 15.5871 0.17802 0.308495 0.730319 -0.19399 -28.3727 8.67849 4.16389
879 1 Ar 1.06233 16.3011 0.994326 -0.811933 -0.761513 0.578661 6.68149 -8.45858 9.99929
49 1 Ar 2.61725 16.1822 0.897633 0.469737 -0.347165 -0.598896 12.3781 -3.87707 -2.40969
399 1 Ar 2.08337 15.0583 0.821712 1.20157 -1.57702 -1.78698 -3.9695 1.79308 13.3132
3964 1 Ar 1.82106 16.3941 0.205169 0.264564 -0.547093 -0.10001 -6.58859 -9.07294 -14.8264
459 1 Ar 4.05051 15.4884 0.982274 1.85202 -1.16589 -0.279766 10.2993 5.16901 10.5143
3971 1 Ar 4.59275 15.9491 0.14464 0.206479 0.767886 -0.516132 -4.56183 -2.83723 7.16384
3613 1 Ar 3.46572 15.6592 0.127948 -0.612206 -0.895646 -0.69885 -2.71652 -4.19431 1.42056
374 1 Ar 4.6122 16.3855 1.29257 0.579248 -1.14716 1.2149 -11.2171 -14.8813 7.02816
380 1 Ar 5.39811 16.6555 0.716981 -0.530874 0.873857 -0.187822 5.86672 6.7867 -16.1793