ITEM: TIMESTEP
9300
ITEM: NUMBER OF ATOMS
4000
ITEM: BOX BOUNDS pp pp pp
0.0000000000000000e+00 1.6795961913825074e+01
0.0000000000000000e+00 1.6795961913825074e+01
0.0000000000000000e+00 1.6795961913825074e+01
ITEM: ATOMS id type element x y z vx vy vz fx fy fz
798 1 Ar 0.520589 0.692307 0.0948717 -0.128058 1.03827 -0.555295 -0.324772 2.9631 8.34433
45 1 Ar 0.873929 0.0900138 0.991634 -0.260384 1.27956 -1.04185 30.5479 43.3708 -7.75634
12 1 Ar 1.5648 1.00843 0.725469 0.883824 -0.576704 -1.88124 8.09425 -10.0529 -7.00849
46 1 Ar 3.48218 0.0656893 0.21706 0.268905 0.332676 -0.157137 1.30154 10.0098 -1.75735
442 1 Ar 2.50616 1.04005 16.5229 2.78366 -1.955 1.35833 2.94942 3.10951 12.7174
47 1 Ar 2.598 1.25517 0.77247 0.300784 0.577399 -0.131519 5.28373 6.31512 -4.60174
401 1 Ar 1.85855 16.6746 1.44143 1.05735 0.343834 0.261759 -0.799927 2.38103 1.58713
91 1 Ar 4.10786 0.393486 1.82684 0.595205 -1.40513 -0.834715 0.838439 16.2116 11.1776
489 1 Ar 3.95349 0.820709 0.741603 0.162805 -0.729235 -0.0590739 -3.68737 26.8237 1.18111
500 1 Ar 4.72295 1.52808 1.1086 0.680854 -0.0944048 -1.34773 -8.0295 4.25796 -21.3224
761 1 Ar 4.37626 16.7108 0.926239 1.05219 -0.662847 1.0646 -9.45415 -16.1297 -13.9848
16 1 Ar 4.68311 0.36243 16.6703 -0.70941 -0.543165 1.72133 -1.54306 -0.120899 6.56447
457 1 Ar 5.41912 1.0255 0.444807 0.812838 -0.546347 0.420205 -10.083 8.10467 10.5846
334 1 Ar 7.60629 1.29539 1.43221 1.33613 0.250191 -0.68127 15.7004 -3.8968 2.89117
780 1 Ar 7.36709 1.36197 0.308185 -0.978787 0.202089 1.95284 -11.4861 -8.19099 3.57083
15 1 Ar 6.25919 1.84483 0.304847 -2.12287 0.319635 0.786277 -16.4882 -18.4392 -7.81702
774 1 Ar 6.41489 0.73392 0.715416 -0.45768 -0.133863 -1.42487 3.53858 -1.50746 -6.19223
383 1 Ar 8.26334 16.6882 16.6438 0.0887165 0.01768 -1.23064 5.90799 -2.89402 3.66742
58 1 Ar 8.63359 0.934753 0.933668 1.18306 -0.144848 -0.555739 -14.9662 38.6801 15.3982
3944 1 Ar 9.1073 0.13571 0.608643 0.632461 0.442799 -0.292655 45.7653 -20.1869 -36.3383
3627 1 Ar 8.85099 1.00504 16.6845 0.501609 -0.0732467 -0.825889 11.1643 2.00602 -1.36406
505 1 Ar 9.99528 0.805914 16.7104 0.62233 1.03419 0.334578 -3.05746 15.7573 25.0236
21 1 Ar 10.0199 0.63725 1.13848 -0.742411 0.0686115 -0.163995 0.90311 -11.5362 -9.66046
419 1 Ar 9.35722 16.3508 16.3863 0.52285 -0.679652 -1.02081 0.71833 0.423324 2.42218
474 1 Ar 10.9576 0.284863 0.582532 1.54298 1.06675 0.873443 6.10741 9.53522 -0.778386
29 1 Ar 11.825 0.936089 0.864758 0.0906502 -0.340051 -0.646719 -52.3 17.07 -21.325
388 1 Ar 12.7111 0.768275 1.16725 -0.939451 0.895411 -0.598602 31.003 -19.176 4.2472
3991 1 Ar 12.8495 0.531484 16.7509 0.355624 0.386308 0.0906397 -19.1011 -6.50167 12.3593
429 1 Ar 13.8363 0.414014 0.623457 -0.576318 0.11236 0.14956 -5.38036 4.96172 30.1109
33 1 Ar 14.8445 0.6067 0.212516 -0.8206 -0.459456 0.31505 -3.96613 -1.01627 13.747
795 1 Ar 14.6711 0.406733 1.31705 -0.651648 -0.906443 -0.878678 19.4117 24.2438 -3.43419
35 1 Ar 14.4405 1.44402 0.681968 -1.32425 -0.000908966 -1.55382 -2.89571 -0.00734279 9.03288
83 1 Ar 15.3002 1.56427 16.6342 -0.275543 0.0240848 1.25253 0.0895092 0.940964 3.13403
79 1 Ar 15.5545 16.4298 0.333489 -0.991283 0.230263 -1.19167 -15.2565 10.9668 -15.9694
438 1 Ar 15.5339 1.42884 0.960977 0.417269 0.189342 -0.827485 -2.68249 -5.1534 -2.04048
764 1 Ar 16.5545 0.605343 0.881538 -0.896981 -0.363823 -0.633857 26.5037 19.889 -4.39802
434 1 Ar 15.9177 0.632157 0.0506292 1.11332 1.84941 -0.456214 -0.302446 2.84928 -7.37226
479 1 Ar 1.16653 2.05708 0.637046 -1.03595 -0.526143 0.873028 -2.66847 2.99986 2.72608
3688 1 Ar 0.529051 1.82833 16.6024 0.0374827 -0.358425 0.986677 -8.73693 7.82442 -3.72641
487 1 Ar 2.20915 2.21788 0.610389 0.724871 -0.670748 -0.47248 6.53334 4.09337 0.148877
10 1 Ar 2.57198 2.87496 16.5883 0.21684 -1.27112 -0.162452 -5.07654 5.24968 1.02629
1170 1 Ar 3.3062 1.87299 0.220864 -0.687468 1.88312 -0.925517 -2.62393 1.88758 -17.616
413 1 Ar 3.34554 1.94426 1.23839 0.632412 0.101365 -0.773849 12.8703 5.50912 -8.14015
1134 1 Ar 2.98558 2.99119 1.09284 0.830873 0.733128 1.19741 9.76639 -6.04894 -4.31889
3689 1 Ar 4.26156 2.502 0.823562 0.672238 0.470278 2.56292 -1.70398 -3.84652 11.7437
133 1 Ar 5.99211 2.61605 1.0463 0.0770462 1.34096 1.28778 1.57979 -11.3267 16.9526
414 1 Ar 5.37689 2.34586 0.0796937 0.143365 1.08228 -0.734171 -2.16602 1.73433 0.103777
95 1 Ar 6.72999 1.73106 1.1659 0.770724 -0.290113 1.69442 -9.36595 -0.691415 28.8419
3661 1 Ar 7.40416 2.37775 0.736525 1.23317 -0.0792344 -0.605327 8.85755 7.23179 -3.34642
379 1 Ar 8.85057 2.2491 0.773616 -1.6776 1.20733 -0.0653686 -8.47351 0.842554 12.3372
64 1 Ar 8.13612 2.40507 1.7188 -1.41158 0.960508 0.47862 3.95562 -19.1645 -15.8492
3695 1 Ar 8.30953 3.21243 0.800289 -0.735271 0.859316 0.21597 -11.0117 -11.5957 1.79299
3701 1 Ar 8.15716 1.92684 16.7464 -0.548091 0.216742 -0.603768 8.95308 4.4778 -6.38181
97 1 Ar 9.42739 3.17746 0.736506 1.3254 0.418482 0.0316505 2.16672 10.2424 28.1542
912 1 Ar 10.4103 3.02835 1.29773 -1.13944 0.39683 -0.542648 -6.72799 15.1266 -6.19937
103 1 Ar 9.7575 1.64276 0.787719 -0.126369 -0.726093 1.3416 -9.0313 0.663664 1.43561
31 1 Ar 10.7841 1.65012 0.646812 -0.192673 -0.290519 -0.0842807 12.8964 -7.55106 -30.0428
512 1 Ar 10.6226 2.05533 1.55062 -0.857408 -0.264834 -1.00996 -8.53442 14.9375 20.9762
71 1 Ar 12.3934 1.50596 16.7259 0.426774 1.24765 -0.223399 0.893992 -17.4136 33.7062
469 1 Ar 13.3366 1.42082 0.648477 0.168427 0.317999 -1.26091 4.55857 -2.41123 -8.18012
67 1 Ar 11.7283 2.08902 1.04575 -0.66826 -0.190753 0.619592 -1.59591 -6.65049 4.15219
1194 1 Ar 13.0948 2.43551 0.780014 -0.196007 0.60799 -0.83032 -4.78207 2.14989 -10.1975
3716 1 Ar 14.5821 2.47535 0.492498 0.398407 -0.634403 0.307868 -3.66527 14.1049 -12.1423
78 1 Ar 14.0851 2.39328 16.3622 0.399883 -0.853879 0.191192 -14.1074 -14.9882 10.2199
441 1 Ar 16.3824 1.66213 0.367504 0.465653 0.312448 0.353287 3.74175 -1.30915 -3.65367
36 1 Ar 15.6939 2.56606 0.193286 1.07951 -1.03496 -0.276886 -2.13758 -16.1566 20.1743
42 1 Ar 0.0262243 2.71723 0.265284 -0.89169 -0.97884 -0.320554 0.489061 1.28554 0.91106
523 1 Ar 0.919104 3.56102 0.675628 -1.1453 -0.230315 -0.405578 9.86713 -11.0247 -16.136
48 1 Ar 1.08618 4.68145 0.654024 -0.113273 -0.340694 0.981286 29.5743 8.31179 -9.87893
452 1 Ar 2.00411 3.26505 0.82831 -0.13979 -1.17002 -0.136059 -8.67231 -2.34712 4.75123
92 1 Ar 2.90754 3.80049 0.41466 0.4321 0.547869 0.249956 -0.76254 0.715405 -0.534524
893 1 Ar 3.28845 3.9918 1.46614 1.13062 -0.196614 -0.0190151 -11.1126 -7.15833 1.70614
486 1 Ar 2.64728 4.88326 0.700455 0.136097 0.72339 0.433339 5.58289 -5.40899 13.4235
3731 1 Ar 4.09889 3.80239 0.759847 1.14775 -0.283752 1.48655 -27.6338 -21.9114 -3.46998
3692 1 Ar 6.00941 3.94031 0.894617 -0.2732 0.161716 -0.30138 -7.37144 2.37963 8.09331
130 1 Ar 5.27968 3.82907 1.8298 0.511961 0.130696 0.86073 14.5199 9.71069 -13.2337
529 1 Ar 5.11041 3.1603 0.984146 1.25401 -0.630801 0.270415 1.57501 13.3407 2.71647
132 1 Ar 4.52599 4.14251 16.6123 0.00788117 -0.409952 0.0581975 7.90606 -2.73324 5.59955
898 1 Ar 6.47534 3.49875 1.76097 -0.0466817 -0.333847 1.15122 -7.86908 7.84354 0.858105
90 1 Ar 6.81275 4.25209 0.267686 -1.20554 -0.547058 -1.14375 -2.9335 -6.75537 -11.1159
136 1 Ar 6.44407 3.11822 0.307106 0.423735 0.132733 -0.907191 6.16119 4.73997 -23.8552
977 1 Ar 6.89832 4.5004 1.29885 -0.905464 -1.53437 -0.411154 -7.57085 -25.945 22.4566
3659 1 Ar 7.18737 3.41586 0.986308 -0.200467 -0.606351 0.496266 11.3805 6.41524 1.77149
538 1 Ar 7.73271 4.4037 1.98349 -0.603817 0.105584 -0.594638 19.1529 3.94641 -26.5884
974 1 Ar 7.81021 4.34342 0.627286 -1.31458 0.272666 0.579091 2.70367 -11.1444 10.4336
3741 1 Ar 8.83523 4.07871 0.959518 0.0617146 0.779257 -0.152521 2.23187 8.95084 5.18169
135 1 Ar 10.3876 3.87031 0.551749 0.871293 1.23285 1.78989 -4.53355 -25.1617 -8.97144
494 1 Ar 9.74848 4.60916 0.936366 0.566085 -0.269899 0.591315 -10.2193 22.7003 -9.64471
432 1 Ar 11.2028 3.10439 0.427628 0.919528 0.437168 0.798103 -9.56492 3.0378 23.3842
73 1 Ar 12.0203 3.11948 1.15671 -0.30137 0.014122 0.381087 -7.62044 -12.4808 8.42249
106 1 Ar 11.3298 3.89018 1.41474 0.582787 0.320457 0.936784 -7.77627 -7.18477 2.42278
506 1 Ar 10.7979 4.69925 0.956815 1.21102 0.527923 0.452277 27.4149 1.4371 -4.05601
66 1 Ar 11.9108 3.88572 0.370989 0.413132 -1.30349 -0.0721474 -0.871041 11.407 -7.03154
189 1 Ar 11.7853 4.85121 1.46554 -0.235644 0.170491 0.0998587 8.72956 -23.3556 -19.5786
3747 1 Ar 12.8379 3.56377 0.806032 1.94701 -1.17043 -0.75527 16.8555 2.05643 -22.0882
146 1 Ar 13.7615 4.62523 0.368977 0.218626 1.01118 0.0938192 14.9725 1.69197 -2.78922
475 1 Ar 13.2823 3.02024 1.6109 0.449466 -1.42721 0.851181 -1.53608 6.89613 16.7699
3674 1 Ar 14.1849 3.71595 0.755159 -1.08177 0.169245 0.127101 0.0976933 -8.58025 -9.57576
3641 1 Ar 15.1387 3.48687 -0.0074064 0.532663 -0.661202 -0.84725 -9.74971 0.934839 3.90967
115 1 Ar 15.4564 3.20823 1.0306 0.624605 -0.248473 -0.301582 -5.38268 25.4824 -5.767
3724 1 Ar 0.316082 4.27265 1.09862 -1.35945 0.213139 1.12033 -38.631 4.70398 8.03869
3642 1 Ar 15.461 4.28913 0.830052 -0.212743 -0.924647 -1.03644 1.7211 -1.62946 5.82658
154 1 Ar 16.1945 3.67573 0.108447 0.323391 -0.448724 0.73059 -1.78849 -0.746606 5.08741
200 1 Ar 0.470278 5.33365 1.3436 0.314975 -0.0926233 0.3591 -4.65503 -13.6067 -8.49071
163 1 Ar 0.152191 4.38495 16.6377 0.4 -0.993997 -0.41533 -15.0168 10.6394 13.8157
571 1 Ar 1.54919 5.58099 0.28344 0.0272466 0.781732 -1.02208 -21.9089 0.666788 31.713
3292 1 Ar 0.44265 5.47616 0.241313 0.690273 -0.48405 -0.891029 0.0117787 10.9982 0.180115
157 1 Ar 3.04878 5.8281 1.18266 -1.12266 1.31888 0.607295 -23.6597 -19.0982 29.9611
522 1 Ar 3.71018 4.89569 1.13439 0.625341 0.468696 0.241869 2.48017 -9.84761 7.173
3732 1 Ar 3.80905 5.55024 0.3979 0.776395 0.131722 0.949516 14.1047 3.91689 -22.0894
174 1 Ar 4.67851 5.54113 1.13136 -1.81316 0.307282 0.925847 5.7944 2.21637 -23.6773
129 1 Ar 4.88141 4.37009 0.935097 1.82255 -0.324963 0.239721 17.7391 4.90732 -6.64846
3296 1 Ar 5.66569 5.0373 1.05191 1.26459 0.0588783 0.333986 2.43551 5.31273 6.12017
566 1 Ar 4.82761 6.17312 0.126958 -0.0659028 1.80192 -0.571386 -12.863 -13.0718 1.32025
3735 1 Ar 6.62057 5.23053 0.667134 0.584946 -0.144694 0.248533 -1.03262 21.1457 -16.0975
139 1 Ar 7.20668 6.08784 1.59646 0.530033 -1.3356 -0.287564 -19.6782 0.542625 -7.50741
3740 1 Ar 7.6007 5.24171 1.20113 1.77633 -0.479022 0.905979 19.0017 -1.20062 -6.84257
219 1 Ar 8.22655 6.21137 1.23519 0.268779 0.256868 -0.117606 -21.7338 9.41515 -6.55327
180 1 Ar 8.72598 5.18342 1.13683 -0.50971 -0.00569826 0.979894 0.497384 -1.66267 -0.869836
534 1 Ar 8.47507 4.78499 16.7294 2.79344 -0.872221 0.177267 3.912 -8.37664 16.3981
102 1 Ar 9.49323 5.70512 0.384002 2.42646 0.850676 -0.0387111 19.7675 -15.8023 -7.24842
94 1 Ar 10.763 5.5954 0.0548401 -0.909693 1.02916 -0.208238 -2.64412 4.86475 1.16739
544 1 Ar 9.23353 6.23042 1.21218 0.0457737 -0.261142 1.02923 18.7517 -10.137 0.0434017
104 1 Ar 10.313 5.48982 1.31072 2.30194 -1.20442 -0.0633502 -27.4418 27.7493 1.13992
148 1 Ar 11.3036 5.74586 1.2185 0.415475 0.847339 0.220676 4.44033 11.4038 0.744739
191 1 Ar 11.7686 5.20367 0.328054 -0.462061 -0.513966 -0.0560779 -6.27427 -10.296 3.47072
155 1 Ar 12.7584 4.64133 0.534468 -0.882937 0.703509 0.0232092 -19.1745 -0.531846 7.68391
151 1 Ar 13.8649 5.29809 1.22085 -0.0092287 0.163793 -0.232251 -6.47807 7.14515 -5.81499
596 1 Ar 13.3489 4.22484 1.39753 0.755296 -0.445878 1.44485 12.2924 5.68748 -3.27732
156 1 Ar 12.3829 5.70289 1.03959 0.702906 0.00133786 -1.15612 13.0809 -13.2643 9.70924
150 1 Ar 14.8039 5.14396 0.626954 0.166394 -0.227543 -1.0534 -10.9941 -10.9166 -11.4828
559 1 Ar 14.729 6.27479 1.55058 0.747723 -0.472841 -0.865497 -11.1785 -5.237 9.61261
605 1 Ar 16.6657 6.0843 0.859383 -0.311997 -0.369404 0.1383 -12.0351 11.8082 4.73498
159 1 Ar 15.5501 5.9364 0.91624 -0.161581 0.513975 1.79765 0.904564 18.2445 -27.0744
3682 1 Ar 15.292 4.59661 16.6186 0.199552 0.591464 -0.663166 -0.701365 -25.7066 -12.3875
3717 1 Ar 16.2895 5.11935 0.505302 -0.133149 1.30446 -3.38677 -10.7 -4.98258 -2.53598
123 1 Ar 0.916842 6.23102 1.07642 -0.242329 -1.5159 -0.928507 5.82423 7.03044 -3.91995
126 1 Ar 0.730528 6.5806 16.7968 -0.580731 0.106531 1.3621 4.43398 -40.1015 2.93784
599 1 Ar 0.109162 7.1387 0.668616 -0.281696 -1.6737 0.697581 28.3174 -36.887 9.30108
173 1 Ar 1.91985 6.4653 0.817491 -0.248929 0.0279967 -0.845437 8.88858 5.0199 -5.8673
211 1 Ar 2.80832 6.90288 1.49085 -0.22089 0.320124 -0.739659 10.7448 7.37174 -13.4329
963 1 Ar 1.82905 7.56921 1.05716 -1.0631 0.308859 -2.75959 14.494 3.8764 -6.1148
653 1 Ar 3.76363 6.49276 0.826298 -0.518108 -0.723168 -1.31734 7.45622 22.1248 8.33707
569 1 Ar 4.62279 7.42653 0.99396 1.9996 -0.530541 -0.096987 27.8214 0.667232 7.78898
220 1 Ar 5.71817 7.22275 1.12446 -0.57151 0.848523 -1.32641 1.58605 -0.486006 -4.19897
620 1 Ar 5.34718 7.04566 0.0576206 -0.676825 -0.40921 0.426746 14.9897 9.23552 9.39503
3817 1 Ar 4.89349 6.53637 1.47542 -2.16257 -1.01261 -0.194753 1.80206 -3.46364 7.84593
3779 1 Ar 6.20228 6.30562 0.533206 0.488431 -0.792614 0.571561 -2.06335 2.09729 -2.48354
3859 1 Ar 7.47962 6.95482 0.986097 -0.957871 -0.586151 0.138048 -1.33524 15.0004 -1.47101
215 1 Ar 7.30228 6.06027 0.464489 0.812815 -1.61721 0.552829 8.90039 -11.0773 -0.450559
183 1 Ar 8.27735 6.92888 0.138529 0.714243 0.368662 -1.04474 -14.4909 -12.469 3.52127
623 1 Ar 8.44026 7.56855 1.06435 0.609943 -0.0719373 0.706843 4.39644 0.997803 -3.3974
3836 1 Ar 10.882 6.79553 0.388412 0.301377 -1.37277 -0.952487 -0.945041 -10.2042 4.3252
3384 1 Ar 9.244 6.74739 0.294424 0.451045 -0.653573 -0.446157 23.4678 5.2178 -7.10407
539 1 Ar 10.2718 6.59503 1.69909 -0.854272 -0.340777 0.00734661 1.02948 1.80117 -5.60812
3785 1 Ar 10.0678 7.34145 0.814157 -1.43465 0.538421 -0.762224 31.1208 -30.6534 16.9622
950 1 Ar 11.8182 6.25249 0.397448 0.541803 -1.1878 0.234193 -6.84398 17.2889 -10.3225
627 1 Ar 11.5976 6.94073 1.32918 -0.316144 0.376895 0.20549 -11.8972 1.73009 -8.26345
187 1 Ar 11.4269 7.7042 0.248513 -0.125801 0.853986 -0.272694 -11.3213 -4.87383 -27.086
989 1 Ar 13.4669 6.66713 0.31369 -0.222646 0.758146 0.207239 -3.93926 -5.69758 5.61839
196 1 Ar 13.6048 6.48162 1.3477 1.26788 0.658313 0.0235502 43.4388 12.7522 -8.91596
713 1 Ar 12.4852 7.09852 0.141376 0.363083 -0.492561 -0.0707603 -7.09454 7.80053 3.44602
988 1 Ar 13.6748 7.72541 0.262577 -0.110793 0.0558244 -0.68555 -9.12824 15.0998 12.8241
1074 1 Ar 12.6208 6.70304 1.32628 0.2117 0.974186 -0.637371 -9.3126 -0.938716 -9.71442
993 1 Ar 14.449 7.10547 0.821806 0.436532 -1.48589 0.664399 1.73012 6.99503 -4.5497
3790 1 Ar 15.7569 7.12911 0.615209 -1.68007 -0.63635 0.643457 -34.1275 -44.2976 22.2923
922 1 Ar 0.394202 8.13119 16.7194 0.498067 0.729387 -0.0328326 2.54185 4.79629 13.7902
201 1 Ar 1.11171 7.44047 0.316495 0.0618576 -0.71122 -0.540494 -35.698 26.8514 31.8309
608 1 Ar 0.587521 8.09451 1.14018 -0.726477 0.609914 -0.477936 -1.17044 -10.601 -16.3256
238 1 Ar 1.37581 8.54639 0.551395 0.16945 0.422834 -0.345367 6.66368 0.631019 -4.76616
717 1 Ar 2.39308 9.11441 0.353033 0.758562 0.0485302 -0.0158749 22.611 1.62847 3.82449
607 1 Ar 2.62215 8.26351 1.11161 1.10729 -0.660595 1.45343 -3.73796 -3.47289 9.12298
1082 1 Ar 2.05238 9.23554 1.33281 1.25637 -0.346307 1.15822 -5.69167 -6.67977 2.33101
647 1 Ar 3.4308 8.7715 0.73756 -0.51829 1.91671 0.324272 3.44484 15.861 -24.9435
3774 1 Ar 3.66806 7.57368 0.814919 -0.788911 -0.585473 1.02057 -29.8687 -11.703 -9.50689
652 1 Ar 4.51622 8.66293 0.693502 -0.230588 -1.03085 -0.0330333 -18.7029 -18.4721 -9.36586
3016 1 Ar 5.42783 8.11575 0.295831 -0.324796 -0.811426 0.356959 -10.1241 -3.62661 4.34551
621 1 Ar 4.43044 7.67649 16.7802 0.648846 -0.891911 0.579773 1.23497 7.3205 21.4117
628 1 Ar 6.89959 8.41047 16.6752 0.512312 1.48286 -0.47628 2.48428 -22.7281 -18.0971
660 1 Ar 6.73163 7.86665 1.03448 -0.131125 0.795558 0.0292899 -11.9043 -9.99058 3.14153
3819 1 Ar 6.31068 7.54866 0.00085527 -0.253349 -0.227684 -0.174684 3.7064 -6.85309 4.71753
141 1 Ar 7.61303 8.10751 0.584659 0.726207 0.826527 -0.346929 25.9619 -5.65067 16.8501
224 1 Ar 8.06642 8.83894 16.7026 -0.0199616 0.470346 0.763199 1.31794 -37.1889 15.437
3739 1 Ar 8.26866 8.86591 0.986396 1.71433 0.572956 0.961991 47.0008 3.32051 -33.3955
3821 1 Ar 8.6153 7.86347 16.5115 -1.07149 0.372067 -0.738772 -0.811364 -2.28531 15.439
613 1 Ar 7.21604 9.04152 0.560372 -0.736454 -0.65744 -0.210777 1.57499 28.5686 19.1353
186 1 Ar 11.0098 7.91686 1.17351 0.533829 -0.459967 -0.472068 -6.24 3.88536 6.79804
3781 1 Ar 9.41516 7.99837 0.561613 -1.11101 -1.22082 0.2748 -34.689 34.956 -17.1881
586 1 Ar 10.7294 9.03039 1.04453 0.463363 -0.393774 -0.346487 2.01163 1.60022 -0.653897
152 1 Ar 11.5855 8.85006 0.218076 0.64102 -0.182918 -0.956415 1.31269 -0.642247 -0.829225
1354 1 Ar 12.2395 8.00444 0.750314 0.999987 -0.884508 -0.848317 16.857 4.08178 17.2243
594 1 Ar 13.5512 9.03214 1.1925 0.907013 -2.09862 -0.998898 8.58844 1.97111 -10.2153
193 1 Ar 14.353 8.158 1.11725 0.52472 -0.376248 0.582987 -3.07077 1.92124 1.00083
3435 1 Ar 14.2084 8.6399 0.11473 0.0370939 0.226509 0.223875 7.768 -3.75642 -3.16065
603 1 Ar 16.3315 7.89848 0.572097 0.70489 0.622424 -0.633038 2.33056 66.8558 -15.3967
1117 1 Ar 15.0794 8.72612 1.68809 -0.234851 0.610062 -0.147109 14.2234 3.90315 18.6231
3395 1 Ar 14.9167 7.83971 0.189792 -1.02885 0.753057 -0.151053 8.0845 -2.18087 -5.84144
274 1 Ar 15.5339 8.57389 0.701464 -0.441899 1.21665 1.63011 -5.51368 3.38545 2.72937
3803 1 Ar 16.4362 9.24251 0.371661 0.60667 1.24725 1.28093 -31.0455 -3.42131 22.663
634 1 Ar 0.658727 9.15696 1.13029 0.0573653 -0.648932 0.695909 -22.3671 -14.4429 10.1857
236 1 Ar 16.7961 10.149 0.944181 1.44259 -0.0355853 0.681369 0.058731 -0.110967 -5.21651
206 1 Ar 1.30027 9.87921 0.922176 1.20405 1.24749 -0.40863 16.256 23.9728 -8.00448
1012 1 Ar 0.869041 10.6365 1.71709 0.00325179 -0.794254 -0.425734 -2.72561 -0.185489 -8.15823
645 1 Ar 1.31433 10.8178 0.316194 -0.24843 0.214126 0.459489 -9.26834 -25.5433 28.6794
277 1 Ar 0.548243 9.40729 0.016254 -0.699468 1.01183 -0.506862 19.0877 1.4152 9.41358
247 1 Ar 2.22665 10.2891 0.386237 -0.8983 0.458988 0.223579 3.67587 -7.44211 7.94009
217 1 Ar 3.2804 9.84978 0.725629 -0.0959792 0.805907 0.0680075 -22.0174 -1.44258 5.50061
287 1 Ar 2.51409 10.2 1.49641 0.801372 1.86765 0.198171 -2.12433 -4.65496 -8.97185
1414 1 Ar 4.28667 9.31329 1.49981 0.536655 -0.37868 -0.283652 0.0794299 -19.7445 9.2905
1051 1 Ar 4.0321 10.2631 1.32503 0.598214 1.05267 0.470313 -3.33881 46.8887 11.903
696 1 Ar 4.28602 9.80497 0.498177 1.25655 0.178103 2.14566 10.9529 -25.8172 -22.2925
297 1 Ar 5.37399 9.12209 0.895832 0.834166 0.709344 -0.0466803 10.0341 26.9013 -3.7138
655 1 Ar 5.3874 10.5316 0.375327 0.700582 0.573036 -0.892029 -4.34916 -25.5278 -7.2233
1417 1 Ar 4.87079 11.4316 1.25958 -0.473696 0.0799364 -0.498917 17.4346 -6.5035 -1.27852
294 1 Ar 5.90608 9.92234 16.3116 0.134294 -0.467541 0.306332 1.80625 4.6878 20.4764
304 1 Ar 6.19976 9.86095 0.624958 -0.255178 -1.57243 0.50278 -4.04513 -10.3512 14.4628
259 1 Ar 5.9366 10.9621 1.15048 -1.51357 1.00911 -0.155954 3.05524 -0.177233 1.5063
1422 1 Ar 7.17793 9.68912 1.35728 -0.0824078 0.127619 -0.939316 -7.14923 16.9759 7.13849
665 1 Ar 7.57281 10.2734 0.462791 0.1564 0.0248416 0.466064 19.8409 -16.0891 0.190647
3784 1 Ar 8.25359 9.7703 1.51591 -0.849932 -0.449511 0.204223 -7.94162 -8.25871 -7.8298
3867 1 Ar 8.55334 10.741 1.38113 0.194581 0.35914 0.538883 21.5168 7.90207 -6.81309
260 1 Ar 7.58512 11.0671 1.1845 -2.21849 0.0813945 0.32623 -8.92044 9.47734 2.87513
3823 1 Ar 8.59282 9.82095 0.528044 1.30757 -0.0583625 -0.862745 6.31502 3.43924 -13.5401
253 1 Ar 9.41265 9.35293 1.2303 0.140203 0.977667 -0.814337 -10.6282 -3.11359 11.2421
3787 1 Ar 10.2824 9.874 1.6491 0.0095948 -1.83585 -0.514512 -2.23123 -0.356508 2.32654
668 1 Ar 9.50169 10.6429 0.655861 0.702474 0.836347 0.783339 -12.8437 -15.8784 4.14373
1458 1 Ar 9.42956 10.6652 2.23975 0.806928 -1.42635 1.22554 -0.0710726 -3.40055 -8.54194
669 1 Ar 11.6631 9.80157 1.48962 1.32041 0.49321 -0.327943 -9.80934 8.69042 -11.6828
582 1 Ar 10.9739 9.86737 0.185955 0.0310625 0.15737 -1.50591 -6.90894 -2.75521 12.7089
227 1 Ar 10.216 10.5151 16.5826 0.32407 -0.213558 0.539252 0.690005 -18.3151 -6.17036
195 1 Ar 13.2283 8.82676 0.150523 0.641676 1.71703 -0.540381 -8.91759 -6.37172 -8.23443
353 1 Ar 12.527 9.04823 0.81841 0.350216 -1.09182 -1.41611 -17.3588 -0.733031 -1.39978
271 1 Ar 12.8634 10.5635 0.573339 1.05819 -0.361115 2.26954 12.0667 -7.93591 -9.62854
996 1 Ar 13.9534 10.2092 1.26428 -0.968548 -0.71174 0.559172 2.60865 2.89319 10.3915
230 1 Ar 13.7334 9.69296 0.397934 0.0361133 -0.575782 -0.255422 3.94082 8.51565 -16.0722
194 1 Ar 14.6968 10.2113 0.227892 0.319275 1.78432 -1.06053 -5.5669 -0.480556 -2.58238
1073 1 Ar 15.0165 10.7622 1.14697 1.51298 0.743917 -0.148055 -9.01141 -3.43016 2.06884
671 1 Ar 15.7369 10.3361 0.458858 -0.149411 -0.640551 0.823747 5.69753 1.76997 -0.705548
315 1 Ar 15.6833 9.64185 1.30563 -0.985708 -0.0233614 -1.233 3.87495 -30.0294 -43.596
241 1 Ar 0.260779 11.2193 1.07166 0.757309 -1.14342 1.19664 -2.97922 1.77397 -8.61541
648 1 Ar 1.96147 11.1227 1.32484 -0.400336 -0.390913 -1.83834 9.57952 -18.3745 -8.68615
245 1 Ar 1.30905 11.7925 0.364875 -1.04895 0.353719 -0.137008 0.127314 26.4838 -9.3652
689 1 Ar 2.95385 10.951 0.805815 -0.13771 1.7311 0.730794 0.124208 2.24796 6.26841
3892 1 Ar 3.08774 12.2819 0.934793 -0.31524 0.0866064 0.494515 -0.760991 -1.1002 -13.2286
1089 1 Ar 4.22231 10.8146 0.287657 0.190857 -1.68362 0.121226 11.0158 17.941 1.96276
250 1 Ar 4.60614 12.0591 16.1832 -1.37678 0.646815 -0.424137 -16.7908 12.8169 29.6667
690 1 Ar 4.33325 12.0052 0.576437 -0.872471 0.419466 0.155906 -9.73612 9.06059 -12.9738
3856 1 Ar 3.4723 11.6765 16.7845 -0.62318 0.717792 0.355625 -10.8487 -0.796631 12.7566
691 1 Ar 5.30744 12.3721 0.781829 0.277088 1.96165 0.330047 -4.86773 9.70054 -22.0291
3895 1 Ar 6.09272 11.7861 0.327251 -0.903568 1.65326 -0.0351257 22.507 -9.49794 8.07429
302 1 Ar 7.56694 12.2753 1.07651 0.567057 -0.851018 -1.57206 -0.68577 -0.22304 13.4199
300 1 Ar 7.44912 11.3936 0.131315 0.359706 -0.0572144 -1.03691 1.84192 4.02902 -0.350836
656 1 Ar 6.60255 11.8029 1.22467 0.927161 0.553728 0.141481 18.0483 -8.87558 6.98303
232 1 Ar 8.57269 11.8374 1.16291 -0.360585 0.107515 -0.196542 -4.1314 22.4812 3.9623
3427 1 Ar 8.61743 11.1985 0.416459 -1.64046 -1.55583 0.0804952 1.8876 -9.14848 -22.709
3832 1 Ar 10.0207 11.4177 0.207344 0.346381 -0.606927 0.765785 5.64083 20.4413 8.78573
1461 1 Ar 9.5458 11.4822 1.40661 -0.401194 -0.47519 0.614083 12.8925 -4.44747 -12.8387
626 1 Ar 10.5083 10.6449 0.956739 0.439448 0.995508 0.2089 1.25244 -5.21135 3.61573
662 1 Ar 11.5325 12.1439 1.39781 -0.1672 0.157067 0.559223 9.21305 -1.23147 4.39382
3512 1 Ar 12.3101 12.0679 0.655038 -0.225408 0.271765 0.716499 -5.36656 4.41989 -12.1384
3830 1 Ar 11.8386 10.3738 0.498671 -0.822554 -0.754297 -1.02078 -3.38038 -3.90645 -5.73786
351 1 Ar 12.9462 11.4377 1.11209 -0.614072 -0.318996 0.141901 12.6156 -8.8452 15.7149
3826 1 Ar 11.9875 11.2723 16.5435 -0.691287 -0.530228 0.918716 -17.8532 13.1998 12.0572
273 1 Ar 13.8084 10.5311 16.4198 -1.8896 0.440346 -1.15527 -1.10313 -14.7159 -7.58883
360 1 Ar 14.5737 12.3944 0.556296 2.06224 -1.43202 -0.0848662 -21.7387 -13.9121 -11.0801
321 1 Ar 16.41 12.0722 1.31297 -0.0036903 0.470234 -2.01944 1.0608 3.50498 -5.54044
687 1 Ar 15.996 11.0824 1.47625 0.0470604 -0.979764 -0.587154 12.3293 8.90762 -9.10607
288 1 Ar 0.465643 12.7869 1.17948 0.547348 -0.436433 -0.042548 -1.1028 -1.82185 3.24024
368 1 Ar 0.480494 13.1612 0.0834127 -0.418155 -0.568023 -0.197132 -6.38301 20.8983 -3.02731
686 1 Ar 2.72728 13.2928 0.526981 -0.276609 -1.78504 -0.199833 -5.26655 -8.42607 21.9526
646 1 Ar 2.02343 12.1894 1.26849 0.108432 0.612187 -0.811015 22.1768 20.9395 -10.1466
677 1 Ar 1.33763 12.8058 0.561099 -2.03265 -0.0691354 -0.676169 11.45 1.21547 -0.439152
762 1 Ar 3.59449 13.8592 0.985606 -0.484548 0.522644 -0.25446 2.32447 -5.29413 14.1294
730 1 Ar 4.51144 13.1699 0.519285 -0.803699 0.759707 0.45501 2.87985 -11.0062 10.343
729 1 Ar 3.55713 12.7516 0.0969012 7.99034e-05 0.0878434 0.296663 10.3332 4.52025 -6.38911
650 1 Ar 5.59699 13.2535 1.34972 0.829371 0.017706 0.129218 -5.86382 6.26625 -1.33621
700 1 Ar 5.97658 14.3413 1.49183 -0.672403 0.37146 -1.19433 -13.2505 2.2409 0.75885
1094 1 Ar 6.49261 12.7302 0.266273 -1.28861 0.356083 0.107387 11.251 7.7353 0.80951
3900 1 Ar 6.57617 12.8401 1.42521 -0.314094 1.09927 1.311 2.79049 14.1931 -24.6237
339 1 Ar 6.92607 13.9929 1.6774 -0.222051 0.787423 -0.614292 3.04938 3.91759 -6.90355
296 1 Ar 7.42859 13.3474 0.686984 -0.483324 0.191565 -0.053993 -0.97319 -2.87455 7.96761
3056 1 Ar 7.61063 12.4694 0.0677191 -0.110353 1.24214 -1.04601 -19.9119 1.70117 -14.2619
295 1 Ar 7.57346 13.2058 1.85884 1.42 -1.14735 -0.416775 6.11273 -5.0699 -1.84085
1538 1 Ar 8.51059 13.4148 1.28915 -0.234535 2.46786 0.546339 -5.99415 -29.4039 -37.0798
301 1 Ar 9.73681 12.3796 0.689513 -0.405738 -0.271434 1.15873 -1.91295 0.738941 0.147151
3937 1 Ar 10.8092 12.4489 0.734725 -0.929975 -0.808893 -0.527076 -19.9513 -22.2754 -20.609
3943 1 Ar 10.2942 13.3173 1.15322 0.769218 -1.26007 0.630235 4.22359 -40.362 49.0339
387 1 Ar 11.6607 12.3909 16.6913 0.795469 -0.737405 -0.121535 -24.8129 -16.05 11.3563
746 1 Ar 10.8432 13.2972 16.6884 -0.261942 0.354508 -0.645584 -6.36425 -2.46574 4.49162
1185 1 Ar 11.2938 13.2468 1.04547 1.55351 0.95602 0.362011 38.9785 24.4145 6.43304
3912 1 Ar 13.3188 13.411 0.995284 -0.0408456 0.261654 0.437686 -8.90055 -25.0831 -11.5051
3591 1 Ar 13.4741 12.3569 1.02958 0.547947 -0.819705 -0.947236 -3.51724 -0.804197 -8.40189
316 1 Ar 12.3341 12.9077 1.30185 0.487886 -1.21514 -0.530328 5.03547 7.32659 3.93651
3556 1 Ar 11.9222 13.3518 0.0495901 -1.78477 0.42168 -0.641969 -19.5659 25.7896 10.9534
670 1 Ar 15.1829 12.8425 1.19607 0.160968 1.11652 -1.05461 12.255 18.7998 14.9922
3924 1 Ar 14.3209 13.6567 0.906284 -0.130778 -0.186338 0.726472 25.5153 -7.94317 -8.30397
726 1 Ar 16.2134 12.9736 0.720554 -1.03166 1.25287 0.709011 18.299 14.3372 6.21916
318 1 Ar 15.6304 12.2829 0.284776 0.500462 -0.234923 -0.884296 -16.0452 -21.5681 1.44065
244 1 Ar 15.9834 13.1151 1.8551 1.25822 0.209692 1.07794 4.73288 -0.650318 4.57796
3926 1 Ar 15.5624 13.8203 0.829865 0.207762 -0.198833 0.118123 -5.68284 -0.730701 5.05476
758 1 Ar 0.679145 14.3085 0.0412573 1.27972 0.265195 -0.467478 -4.74127 6.77431 8.60834
359 1 Ar 0.927608 14.6302 1.31448 1.16228 -0.878144 0.391197 -2.08173 2.02872 -3.80871
3925 1 Ar 2.78781 15.4222 1.40856 0.831975 0.886703 -0.919769 20.1156 -23.9822 -1.36924
1171 1 Ar 1.65536 13.8242 0.388189 -0.952371 -1.29002 0.267906 -7.96317 19.992 17.0649
367 1 Ar 2.6484 14.3492 1.02719 -1.93967 -0.877797 -0.232028 -16.1849 -2.60066 3.18278
376 1 Ar 4.43972 14.6573 0.240854 0.0488602 -0.796263 -0.631956 9.36839 9.78474 1.38649
7 1 Ar 3.87593 14.9043 1.44499 -0.00440508 0.0802411 -0.777959 -5.7879 12.2293 -9.37798
770 1 Ar 4.6349 14.2246 1.26086 0.925335 -0.650522 1.11862 9.554 -12.4191 -5.97224
736 1 Ar 5.30732 13.8455 0.304507 -1.26336 -2.02362 0.381344 4.09723 4.09565 -1.54605
694 1 Ar 6.40984 13.7396 0.612431 -0.0507457 -0.491046 -0.427358 -1.66062 4.93334 7.40616
3940 1 Ar 7.37152 14.6349 0.912795 0.231949 0.0793636 0.171455 -6.35847 1.19106 13.7216
370 1 Ar 6.02628 15.5599 1.43037 -0.537374 0.285962 -0.769133 37.0653 -13.9089 8.13497
3981 1 Ar 8.08055 14.1356 0.368262 -0.706658 0.534455 -0.666596 18.4868 -24.8361 7.63017
337 1 Ar 9.07033 14.2936 1.14074 -1.51698 0.273734 -1.64204 5.07769 3.27825 -8.5731
3979 1 Ar 7.92603 15.1007 0.0904731 -0.149361 0.485573 -0.416047 -5.51163 19.5026 37.8813
308 1 Ar 9.19749 14.7132 0.123336 -0.637201 -2.15479 -0.167025 -0.627896 2.56001 7.15484
745 1 Ar 10.0955 14.8646 1.11724 0.666086 0.127746 1.27856 -2.24244 1.63333 1.02933
749 1 Ar 12.2387 13.9959 0.921005 0.754168 0.749873 -0.973171 -0.66675 -16.9547 -6.78032
346 1 Ar 11.0769 14.3465 1.08749 0.68846 0.443885 0.548635 -8.76299 -15.7121 -10.387
352 1 Ar 10.9995 15.2183 0.449929 -0.0853758 0.0207143 -0.447969 0.435194 -2.72094 3.7013
433 1 Ar 12.503 14.8026 1.50126 1.35325 -1.0518 1.30185 13.897 -6.83615 12.1249
3955 1 Ar 12.1371 14.7871 0.210168 -1.04937 1.3144 0.605544 15.5609 5.72071 34.4996
3950 1 Ar 14.6067 14.7435 1.00921 0.886413 -0.444581 -0.713111 -0.281545 0.111406 2.46614
39 1 Ar 15.1169 14.139 1.98957 1.13687 0.356263 -1.45476 -5.16052 6.39545 -19.2146
357 1 Ar 14.9593 13.2572 16.5843 -0.163526 0.707654 0.917293 -24.7536 -7.36237 12.6792
722 1 Ar 15.2109 14.529 0.105995 -0.233598 -0.900243 -0.392605 -4.88797 12.2032 3.16053
314 1 Ar 14.1231 14.2633 0.0999858 0.614537 -1.04288 -0.440514 -1.20358 -22.1158 4.52904
317 1 Ar 0.183226 13.848 0.92737 -0.211285 -1.53211 0.865089 0.625293 -1.85371 3.85088
724 1 Ar 16.2873 14.5446 0.459146 0.605413 0.725511 -0.75795 2.67945 -2.82712 -1.11959
1083 1 Ar 16.8117 15.3081 1.10521 1.83182 -0.51577 0.656424 -1.65507 1.72354 -2.29824
365 1 Ar 1.21427 15.2484 0.256536 -1.59188 -0.468174 1.10303 2.31754 -6.20505 -6.75691
325 1 Ar 0.338809 15.5332 16.612 -0.92758 -1.17849 -0.791981 -17.6176 21.0136 31.3777
879 1 Ar 1.0009 15.8503 1.03848 -1.66217 0.379257 1.36875 -20.0217 2.06686 12.3892
49 1 Ar 2.96892 16.1672 0.752683 -1.31109 0.360786 0.435095 -7.31143 8.6746 42.9915
399 1 Ar 1.84984 15.1779 1.09075 -1.48687 0.359579 0.608015 -2.01303 -26.1041 -4.42695
3964 1 Ar 1.86818 16.066 0.509859 1.4267 -0.503124 -0.153529 6.85339 7.29844 -9.15134
459 1 Ar 5.09577 15.6865 1.17227 0.608546 1.28581 1.0524 -40.5834 2.54015 -9.31059
3971 1 Ar 4.74813 15.8516 0.0242704 0.79423 2.04582 0.184188 13.7099 5.23028 -0.98133
3613 1 Ar 4.0888 15.6662 0.750392 -0.361084 -0.584894 0.0218738 -21.8907 -0.383035 12.9388
374 1 Ar 4.97233 16.5468 1.74155 1.08181 0.579555 0.202174 22.4605 10.9764 8.71624
380 1 Ar 5.39613 16.6266 0.729147 1.43584 0.852898 -1.3807 14.0727 3.74718 -8.53283
336 1 Ar 5.51259 14.8745 0.6667 0.464572 0.172316 0.393907 -0.085726 -8.251 -6.32491
340 1 Ar 5.86555 15.6749 0.0276267 1.36983 0.558018 0.548197 9.77595 -1.49833 10.0919