ITEM: TIMESTEP
9500
ITEM: NUMBER OF ATOMS
4000
ITEM: BOX BOUNDS pp pp pp
0.0000000000000000e+00 1.6795961913825074e+01
0.0000000000000000e+00 1.6795961913825074e+01
0.0000000000000000e+00 1.6795961913825074e+01
ITEM: ATOMS id type element x y z vx vy vz fx fy fz
798 1 Ar 0.252193 0.660199 16.6382 2.42979 -0.213291 1.48042 7.16497 -2.08007 -0.130698
45 1 Ar 1.11375 0.288912 0.786812 0.867909 -0.846891 -0.287405 0.134522 -7.75786 2.59286
12 1 Ar 1.94796 0.989571 0.342398 -0.990575 0.0579373 -0.480612 -7.81568 4.4976 -3.36423
46 1 Ar 3.46262 0.363875 0.22894 0.687047 0.895626 -0.377852 3.80101 -11.9079 7.15907
442 1 Ar 2.9503 1.05888 16.3019 -0.401059 1.71128 -0.184428 12.0823 -14.9736 0.673964
47 1 Ar 2.88884 1.0162 0.795607 0.691411 0.651789 0.285137 8.57347 3.237 0.708418
401 1 Ar 1.69206 16.4419 1.44846 -0.725692 0.321572 -0.363692 3.18781 -20.1746 -10.8723
91 1 Ar 4.32261 0.637582 1.85454 -0.697735 0.194716 -1.38149 -0.526303 0.0182405 -19.253
489 1 Ar 3.94736 1.09064 0.791408 -0.141205 -0.881097 0.216599 3.32479 14.8662 9.06632
500 1 Ar 4.61683 2.07451 1.53095 -1.13657 0.304375 -0.722868 -0.47847 -6.9829 -4.62995
761 1 Ar 4.39294 0.153428 0.802427 0.0147375 0.148462 -1.0881 12.2585 10.2692 7.37017
16 1 Ar 4.59112 0.472364 16.5645 1.44633 -1.37991 0.647707 -8.8476 17.5162 -5.34907
457 1 Ar 5.01525 1.13566 0.652926 0.639153 0.578029 -0.853963 5.91239 0.114988 -1.52284
334 1 Ar 7.83409 1.21423 1.18912 0.405638 -0.294856 -0.206965 2.5258 -5.71009 -2.93146
780 1 Ar 6.94564 1.2394 0.334897 -0.861092 -1.04332 1.30056 3.62432 1.12406 -2.07643
15 1 Ar 6.14207 1.92676 0.799562 -1.19873 0.0855905 -0.50011 1.80131 1.52783 2.93749
774 1 Ar 6.18413 0.848979 1.0079 0.016514 0.610148 -0.231105 -3.57639 0.496786 -15.3723
383 1 Ar 8.64836 16.71 16.138 -0.63268 -0.0904222 0.77109 2.72722 1.97565 -10.6827
58 1 Ar 8.82618 1.00087 0.865633 0.481872 1.08803 -0.34761 13.9453 -18.6711 17.1677
3944 1 Ar 9.06677 16.7878 0.311559 0.0269396 0.388525 1.09335 2.03062 8.9062 14.4987
3627 1 Ar 9.15841 0.851794 16.3556 1.21075 0.242058 1.78956 12.9661 -3.61557 2.7176
505 1 Ar 10.0692 0.992734 0.132357 0.215318 -0.0271857 -1.33654 2.86059 0.857163 2.30134
21 1 Ar 9.84788 0.39848 1.02132 -0.0633999 -0.872898 -1.81507 -2.44345 11.0866 -1.64656
419 1 Ar 9.76657 16.5739 16.358 -0.0204165 -0.212165 -0.235256 3.27844 10.2575 -12.5427
474 1 Ar 10.9755 0.240463 0.435724 0.879084 -1.62477 -0.550906 -24.5487 -24.4067 -9.03124
29 1 Ar 11.6063 0.946062 0.700336 1.02912 -0.979248 0.523091 18.5234 25.4744 10.7002
388 1 Ar 12.7132 0.543036 1.3962 -0.531402 1.40245 -0.561752 -14.5067 4.5338 -38.8156
3991 1 Ar 12.3953 0.703001 16.7972 0.368918 0.809584 1.56087 2.98841 0.89481 -6.23812
429 1 Ar 13.8868 0.20897 0.69901 -0.776664 -1.41102 0.743081 -31.401 20.9974 -29.8688
33 1 Ar 15.0226 0.658736 0.562258 -0.194051 0.317541 0.426468 8.61398 6.90252 -10.4905
795 1 Ar 14.6444 0.063195 1.29528 -1.00966 -0.986311 0.286139 26.3309 -16.0256 38.1741
35 1 Ar 14.1332 1.61815 0.794066 -0.18792 0.116647 0.863519 4.37966 13.985 24.235
83 1 Ar 15.324 1.76479 0.263745 -0.503621 -0.318211 0.915384 -3.10947 -0.808327 -1.06613
79 1 Ar 15.2183 16.286 0.450254 -1.17191 -0.908409 -0.670296 -1.5527 5.21422 6.34948
438 1 Ar 15.5351 1.35329 1.25991 1.07627 -0.290187 -0.26763 -11.1401 -11.3054 -6.23648
764 1 Ar 16.6877 0.797812 0.903435 -0.714521 0.191416 -1.28928 18.6768 -37.4568 11.1888
434 1 Ar 15.968 0.676324 16.7116 -0.625635 -0.467297 0.424276 -1.48845 -1.97591 5.87062
479 1 Ar 1.41726 2.15361 0.289928 -0.703218 0.00980063 -1.32613 1.74459 6.58535 -4.36713
3688 1 Ar 0.439001 1.88706 16.494 -0.871166 -0.88219 -0.922673 0.180467 -3.16045 1.03646
487 1 Ar 2.40618 1.9629 0.737063 -0.650426 0.750892 -0.695367 7.21751 2.80437 -17.7883
10 1 Ar 2.34979 2.9938 16.6521 -0.245863 1.25928 -0.385 -1.55409 -11.3919 4.70875
1170 1 Ar 3.20884 2.20051 16.6636 1.12301 2.06683 0.0554226 -20.7202 6.34061 -10.7084
413 1 Ar 3.53597 2.10668 0.84402 -0.11533 1.43123 -0.64307 -7.11832 -12.4615 11.9956
1134 1 Ar 2.94168 3.15506 0.93432 -0.68565 0.286947 -0.366251 11.86 -4.52689 0.873795
3689 1 Ar 4.09405 2.93993 1.01817 -1.61588 -0.180267 -0.944767 6.52205 12.7481 3.04468
133 1 Ar 5.91575 2.99433 1.39037 -0.0495462 -0.0770803 0.570191 -3.50985 2.52724 -3.94174
414 1 Ar 5.1689 2.29759 0.304025 -0.169703 0.192104 -0.657556 4.92458 -7.3931 5.5267
95 1 Ar 7.05453 1.85736 1.43635 -0.0693534 -0.722776 -0.0139433 -9.90286 8.59532 -1.76886
3661 1 Ar 7.49857 2.51017 0.581074 -0.00435041 -0.298517 0.314534 -1.77575 -3.99745 1.6812
379 1 Ar 8.58877 2.08767 1.04592 -1.87163 -1.00842 -1.59376 0.16848 2.75251 3.61887
64 1 Ar 7.97203 2.38824 2.22838 -0.405514 -0.297359 1.01368 -14.9602 -3.72573 -28.7259
3695 1 Ar 8.05355 3.31941 0.9887 -0.880438 0.856448 1.39783 13.078 -28.5667 5.81125
3701 1 Ar 8.58006 1.55268 0.0698449 1.28589 -0.407622 -0.850831 1.7037 39.1744 -5.80898
97 1 Ar 9.31908 3.24496 0.819254 -1.36603 -0.208378 1.84611 -9.96042 -0.556631 1.57232
912 1 Ar 10.1923 3.4314 1.44136 0.589492 0.340189 0.211132 -2.78588 17.5416 11.6466
103 1 Ar 9.73319 1.66607 0.922086 -0.426195 -1.06559 -0.167915 -18.9212 -2.76777 -0.123876
31 1 Ar 10.8922 1.79587 0.310934 -0.481421 -0.632127 -0.6344 -5.29077 -0.0966849 12.7889
512 1 Ar 10.2837 2.59056 0.897779 0.259435 -1.339 0.167322 11.3574 -30.887 19.2682
71 1 Ar 12.3987 1.81192 16.5298 -1.25675 1.23367 -0.18951 8.81661 -6.73605 -13.0424
469 1 Ar 13.1592 1.29618 0.526818 1.33642 1.43182 0.53005 -2.6702 -4.49808 -4.67248
67 1 Ar 11.2008 2.74678 1.46411 -1.53985 0.930266 0.619982 -0.104706 -3.74246 -0.644331
1194 1 Ar 13.1542 2.59187 0.347594 0.117935 -0.375017 0.0287914 -16.32 -6.96723 -17.9923
3716 1 Ar 14.734 2.75085 0.623078 1.34767 0.55687 -0.70007 -3.48478 2.47127 -16.7673
78 1 Ar 13.9501 2.19968 16.6205 0.0467533 1.03474 -0.607702 11.9417 -7.64604 -3.27075
441 1 Ar 16.4063 1.61505 0.459501 -1.10852 0.513429 -0.498919 -8.70693 31.9779 -20.54
36 1 Ar 15.9182 2.87802 0.559676 0.296856 -0.744087 1.13254 -10.4257 -11.6174 -24.0211
42 1 Ar 0.28253 3.25139 0.300467 1.97458 -0.365053 -0.105023 -3.7285 -7.80902 1.15255
523 1 Ar 0.941796 2.93402 1.11632 -0.647214 1.5256 -0.733273 -16.9802 10.474 -7.10752
48 1 Ar 1.18277 3.98498 0.815928 -0.602635 0.272811 2.19193 1.60459 1.74734 -2.49108
452 1 Ar 1.91746 2.91703 0.923526 0.729379 -0.335181 -0.572721 15.5917 9.21216 -21.3327
92 1 Ar 3.22023 3.72591 -0.00822698 0.939161 -0.754532 -0.662454 -15.8644 -14.9844 0.229315
893 1 Ar 3.08385 4.09784 1.85622 -1.16329 2.64341 -0.760787 13.873 0.14917 -9.80099
486 1 Ar 3.04236 4.80852 1.05937 0.0914121 -1.46296 0.142915 -2.93378 -3.97386 -8.9762
3731 1 Ar 3.71867 4.00115 0.818557 -0.724917 -0.484057 -1.75314 9.51446 2.63893 21.6177
3692 1 Ar 5.91057 4.26466 1.25566 -1.34529 -0.199892 -0.256019 10.5569 8.04223 -12.5835
130 1 Ar 5.28151 3.79929 1.90305 -0.651022 -0.130268 -0.778496 23.9197 11.4655 -2.19666
529 1 Ar 5.02489 3.41857 0.77931 0.643369 0.587608 0.404169 5.11457 5.01178 0.843549
132 1 Ar 4.37979 4.30124 0.0423441 -0.638696 0.492647 -0.478019 19.677 -20.3098 27.9621
898 1 Ar 6.79445 3.67194 2.62319 0.328899 -1.0804 1.248 -4.11886 2.07292 -6.33425
90 1 Ar 6.97905 3.9333 0.148088 1.10906 2.92403 -0.736594 -0.840245 1.52533 3.79397
136 1 Ar 6.39356 2.90032 0.389927 0.532392 -0.242189 -0.0516197 1.66799 1.76944 -5.69551
977 1 Ar 6.84289 4.62155 1.71477 1.09079 -0.456801 -0.663053 4.81606 -9.51392 2.89713
3659 1 Ar 6.85894 3.57469 1.15682 -0.568683 0.566655 0.747744 -6.09103 -1.60426 2.73527
538 1 Ar 7.91882 4.79846 1.89267 0.0216557 -1.12607 0.821349 2.97606 -10.1889 10.9217
974 1 Ar 7.656 4.22104 0.92901 -0.407958 -0.479681 1.07149 -1.44959 29.5517 15.3673
3741 1 Ar 8.78214 4.30814 1.19829 0.872876 -0.88773 -0.443142 -9.27357 -16.9511 -3.54782
135 1 Ar 10.0917 3.97274 0.471119 -0.150459 0.305501 0.946807 -0.015936 1.09864 7.03921
494 1 Ar 9.74196 5.0634 0.671643 -0.00292821 0.347389 0.957374 -0.879473 4.76559 -5.78613
432 1 Ar 11.1044 3.27671 0.436917 -0.440182 0.6295 0.801397 -3.9697 -1.01468 -1.20039
73 1 Ar 12.2925 3.1003 1.09544 0.412656 0.733965 -0.610622 0.194744 3.53456 0.274774
106 1 Ar 11.2494 3.84275 1.34533 -2.25208 -1.00224 1.20534 3.98183 7.31715 1.51031
506 1 Ar 10.813 4.81318 0.747709 -1.87485 -1.33429 0.212801 -10.203 8.56875 30.5532
66 1 Ar 11.9414 3.9854 0.452171 -0.770064 1.10728 0.16719 3.83031 2.2827 0.0986625
189 1 Ar 11.6765 4.94688 1.53334 0.690761 0.468739 0.593705 -9.14142 3.24509 4.10742
3747 1 Ar 13.0942 3.75612 0.560504 -0.114138 0.731044 0.734974 -18.9127 -6.91359 12.2844
146 1 Ar 13.8957 4.573 16.6675 0.111564 -0.509341 0.261565 -9.61632 -22.5478 8.04879
475 1 Ar 13.4133 2.86573 1.26316 0.871622 1.73291 -0.219382 8.08774 27.9265 11.6328
3674 1 Ar 14.1006 3.68677 0.613311 0.673543 0.433233 0.735507 16.1079 -8.04312 -3.26181
3641 1 Ar 15.4694 3.64984 16.7661 0.537392 -0.35009 0.968243 -29.1907 4.24848 -11.0061
115 1 Ar 15.2428 3.68339 0.998482 0.213838 0.875883 0.614844 -3.25941 -0.0942683 12.589
3724 1 Ar 0.328364 3.83703 1.48224 -0.2093 -1.24823 0.271373 37.3209 8.09332 2.68261
3642 1 Ar 15.5336 4.73995 0.740305 -0.68572 -0.519964 -1.02957 6.93343 -4.23432 -2.91488
154 1 Ar 16.2735 3.86784 0.562866 0.176236 0.814618 -0.105197 10.8384 23.577 9.00723
200 1 Ar 0.370635 4.77135 0.966293 -0.863501 0.133552 0.499632 4.42804 -7.39308 30.2627
163 1 Ar 0.443359 4.30492 0.0651553 0.444103 0.65354 -1.03078 -3.17375 -6.95794 -15.1501
571 1 Ar 1.78441 5.75038 16.785 -0.024282 -1.6707 0.474178 -6.91095 -4.43203 7.48185
3292 1 Ar 0.372807 5.40068 0.170781 0.0523276 0.188961 -1.26779 -10.0002 18.7265 9.18887
157 1 Ar 2.6158 5.76873 1.25437 -0.125771 -0.631132 0.249764 -1.03095 12.5866 -2.47582
522 1 Ar 3.86213 5.06086 1.83653 -0.363358 0.390266 1.2072 -4.30363 8.33662 -37.4742
3732 1 Ar 3.54095 5.58405 0.501613 0.571894 -1.94555 0.224354 12.8776 -6.63589 16.6772
174 1 Ar 4.98558 5.51091 1.50778 -0.0169469 0.66333 0.876692 -16.0877 -9.58271 -16.524
129 1 Ar 4.81499 4.51158 1.16785 0.256378 0.746297 -0.283119 -1.44919 -4.20507 -4.17762
3296 1 Ar 5.68973 5.31511 0.767418 -1.91045 -0.0113566 -0.998176 -3.54735 -12.6491 -2.74989
566 1 Ar 5.02798 6.22769 0.671799 -0.229793 -1.47629 0.910211 -4.68423 11.6261 0.115321
3735 1 Ar 6.78861 5.17529 0.809247 -0.870564 -0.541537 -0.583416 -1.13977 1.31366 -3.1657
139 1 Ar 7.03604 6.05666 1.37891 -0.75577 1.00475 0.011417 3.73752 6.1329 -1.78786
3740 1 Ar 7.96719 5.36967 1.0262 0.162644 -0.166094 0.808973 4.00329 -12.7412 7.97514
219 1 Ar 8.08913 6.43497 1.28993 -0.726322 0.76143 -0.735839 -30.4146 0.536167 -15.2047
180 1 Ar 8.98795 5.2883 1.45367 0.30889 1.52462 -0.977478 -1.53048 14.546 -0.420948
534 1 Ar 8.70642 4.93445 0.319364 -0.118242 0.482916 -0.154972 -1.66599 3.33724 -5.48415
102 1 Ar 10.0093 6.05276 0.20814 0.433884 0.190869 0.382695 46.218 -19.0695 -49.7281
94 1 Ar 11.0832 5.46255 16.5683 0.431029 -1.34194 -0.289258 -7.92331 5.45603 -10.2511
544 1 Ar 9.42015 6.2594 0.905373 1.02684 -0.168669 0.134487 -38.0404 9.16775 50.7876
104 1 Ar 10.9007 6.39743 1.06037 -0.683434 0.212513 -0.196848 -8.60627 -22.7204 -2.79987
148 1 Ar 11.8391 6.02747 1.4786 -0.705872 0.582344 0.496602 20.5317 -3.78596 -21.6778
191 1 Ar 11.7512 5.19197 0.511456 0.621311 -1.0473 -0.1435 20.9542 -0.20741 2.02524
155 1 Ar 12.7773 4.78329 0.247216 2.06617 0.5988 -1.19044 -6.63044 3.27229 -21.0451
151 1 Ar 13.7548 5.78891 1.2202 0.677429 1.84181 -1.00136 18.0949 -2.58279 3.55455
596 1 Ar 13.2956 3.87112 1.57466 -1.12647 -0.0496527 -0.407433 25.0469 -0.817736 13.0396
156 1 Ar 12.8361 5.86928 0.798781 0.620058 0.873221 0.805369 -22.1486 4.71722 -9.5959
150 1 Ar 14.5802 5.22106 0.644218 -0.155647 -0.250086 1.03752 -9.05946 1.60583 -0.563802
559 1 Ar 14.815 6.25097 1.41205 -0.244554 1.01275 -0.960061 -18.1299 -3.61116 10.7902
605 1 Ar 16.3915 5.4715 0.907597 0.060523 -0.617915 0.242281 -10.6773 7.38296 -1.68456
159 1 Ar 15.4227 5.89359 0.652152 -0.132792 0.204027 0.537061 2.58201 -0.377446 -10.6224
3682 1 Ar 14.9794 4.6216 16.5531 -1.86419 -1.01108 1.19135 4.27788 1.08796 -1.29708
3717 1 Ar 16.2949 5.0771 16.5358 -0.759701 1.10829 0.0232191 -9.86209 1.28841 23.036
123 1 Ar 1.08761 5.60603 0.87133 0.0837163 0.47057 -0.589199 7.33971 6.48718 8.57903
126 1 Ar 0.890361 6.42845 16.6885 -0.167318 -0.75172 0.152368 -23.9106 -10.053 2.63331
599 1 Ar 0.288065 6.74107 0.706455 0.481124 0.0253955 -0.58745 -4.14405 8.78408 -27.4153
173 1 Ar 1.35126 6.6935 0.893259 -0.933159 0.51422 0.199923 4.05543 -2.6357 2.10752
211 1 Ar 2.49692 6.83019 0.982629 -0.314285 -1.03232 -0.0920768 5.31822 6.28602 -1.12484
963 1 Ar 1.87479 7.63949 0.914127 -0.148314 -1.29019 0.406026 -14.9121 14.6023 3.50763
653 1 Ar 3.62745 6.64688 0.86529 -0.897493 0.923782 0.447592 -6.58504 -37.7189 14.2654
569 1 Ar 5.10016 7.5121 1.19494 1.04401 -0.669223 0.511261 -2.73256 -2.09965 -3.59349
220 1 Ar 6.42531 7.19562 0.862243 -1.04298 -0.666698 -0.133311 16.9657 12.277 16.6388
620 1 Ar 5.69247 7.03693 0.19329 -0.48078 0.465344 1.62229 -11.1526 -11.6906 -11.8126
3817 1 Ar 4.68269 6.51168 1.79076 0.0305812 -0.545123 -0.794129 20.3612 1.62147 -7.43501
3779 1 Ar 6.22295 6.07774 0.32302 1.12745 -0.371317 0.0809824 14.7108 -6.38073 -25.3394
3859 1 Ar 7.52806 7.15849 0.725763 0.467873 -0.559887 -0.667424 -3.77873 6.20818 6.51619
215 1 Ar 7.68523 6.09152 0.39347 0.441773 0.266989 0.0558155 -23.1935 7.91169 -23.5767
183 1 Ar 8.16999 6.92029 16.7054 0.244197 -0.649986 -1.80906 12.4185 3.4827 -0.144485
623 1 Ar 8.85625 7.17062 0.751849 -0.298523 0.442834 -1.10115 -7.45978 -2.60698 -3.24879
3836 1 Ar 10.9774 7.06257 0.348046 -0.253985 -0.929108 2.50411 -4.63095 18.4453 -15.056
3384 1 Ar 9.3527 7.26178 16.5842 -0.456591 1.38503 0.00425363 18.39 -20.1534 9.6164
539 1 Ar 10.1105 6.80785 1.70826 0.0192945 -0.80233 0.513035 -3.29301 -16.0946 1.13016
3785 1 Ar 9.98552 7.44986 0.856721 0.16122 1.05139 -0.621941 -0.0753597 4.38233 -7.16506
950 1 Ar 11.8466 6.2722 0.384423 0.277432 -0.717817 -0.158038 1.31753 5.39087 -0.748781
627 1 Ar 11.5444 7.35388 1.2911 0.0825233 0.143071 -0.763987 6.59732 -4.10836 -20.0592
187 1 Ar 11.5226 7.54765 16.4188 0.567262 -0.565286 0.439009 6.80061 22.2659 -1.67966
989 1 Ar 13.3937 6.65448 0.254214 -0.823941 0.119388 -1.21734 -3.51755 9.79329 7.92369
196 1 Ar 13.9062 6.8798 1.36353 0.713385 -0.879184 0.326882 -17.1629 -6.77274 -12.7198
713 1 Ar 12.4699 7.29708 0.241341 0.287674 -0.0478657 0.0619351 -4.53046 -15.7327 -4.24489
988 1 Ar 13.9531 7.85724 0.6733 0.893577 -1.51268 -0.5442 -7.59215 -15.4999 -2.82886
1074 1 Ar 12.5396 6.84207 1.334 0.190394 0.322562 -1.09344 -0.374476 4.15517 -6.67796
993 1 Ar 14.8933 7.14394 0.830415 0.905777 -0.517254 0.360069 -5.61915 10.1229 1.56548
3790 1 Ar 15.9311 6.91752 0.644471 0.367998 1.16871 -1.39531 17.4012 5.30345 18.7581
922 1 Ar 0.331986 8.57724 16.6305 1.8319 -1.56991 1.15963 -10.2847 0.386814 -14.387
201 1 Ar 0.68848 7.63819 0.210148 0.504628 0.199972 0.759745 5.20073 -8.73745 5.81176
608 1 Ar 0.0717531 8.27889 0.784055 -0.772505 -0.484536 -0.73186 -3.5726 -2.94606 21.6715
238 1 Ar 1.2413 8.53741 0.647017 -0.522398 -0.509711 -1.06532 -10.6736 -15.2814 15.9861
717 1 Ar 2.56222 9.41666 0.758345 -1.47374 0.784284 -0.71343 1.78977 14.339 22.995
607 1 Ar 2.93547 7.89521 0.964907 -0.894706 0.885954 -0.0171082 6.74645 28.6 12.9086
1082 1 Ar 2.40088 8.61303 1.55522 0.226646 -0.607032 0.587729 -11.2934 4.00735 -1.74049
647 1 Ar 3.35663 8.8538 0.445444 -0.62592 -0.176121 0.586455 8.97965 -17.5813 -7.12732
3774 1 Ar 3.8 7.53215 0.49905 -0.547097 0.100351 0.436759 10.5067 20.44 -15.1544
652 1 Ar 5.13969 8.16538 16.6941 0.391646 -0.387977 -0.184657 -1.18123 -33.2797 5.43471
3016 1 Ar 5.65922 8.45342 0.827784 0.0715251 1.08656 1.17138 23.9886 -10.3539 -7.40874
621 1 Ar 4.6929 7.19554 16.7469 0.346341 0.293513 -0.158138 -12.1468 7.74336 15.8808
628 1 Ar 7.06943 8.67132 16.4362 0.68008 1.05148 0.676824 -12.9437 0.490508 1.86026
660 1 Ar 6.83987 8.15636 1.00811 0.329588 -0.106416 -0.458286 -0.705178 13.1064 -14.4616
3819 1 Ar 6.23504 7.90767 16.7505 -1.17731 0.946729 1.49956 5.67233 8.01907 1.66117
141 1 Ar 8.12774 7.8859 1.30514 -0.967315 1.27302 0.483747 3.6747 -4.98101 -4.56273
224 1 Ar 8.00596 8.44872 0.0471625 0.575475 0.390923 1.21238 17.4424 4.09925 9.57296
3739 1 Ar 8.53548 8.93628 0.934208 -1.61108 -0.0657881 1.0644 -21.2333 2.3296 -6.09257
3821 1 Ar 8.70641 7.85303 16.1142 -0.479323 0.19005 0.273975 -27.9873 5.44078 14.8296
613 1 Ar 7.40017 9.08408 0.811428 1.42855 -0.384743 0.210362 0.308366 -3.19697 -9.7058
186 1 Ar 10.5151 8.40507 1.35679 1.66004 0.598096 -0.383727 11.3065 -19.8019 21.9006
3781 1 Ar 9.24774 8.24708 0.277765 1.03667 0.558504 -0.724834 -5.18928 -2.92122 3.67755
586 1 Ar 10.5605 9.39869 1.11817 -0.846634 -0.00420811 -1.09876 1.02229 6.58909 13.0749
152 1 Ar 11.5067 8.30209 0.497934 0.63736 -2.22708 0.191977 -10.5366 -10.813 -9.18552
1354 1 Ar 12.5686 8.008 0.992727 -0.294898 0.73111 -0.875054 -2.60475 6.13796 7.94325
594 1 Ar 13.5072 8.96982 1.03784 -0.486421 -0.983062 -0.641053 6.08202 -11.2554 6.11515
193 1 Ar 14.5781 8.51964 1.17823 0.0803898 2.31188 -1.78053 -2.841 -11.8226 24.9382
3435 1 Ar 14.1928 8.80195 0.253781 0.0376565 -1.08569 0.5902 10.7765 10.3948 -19.1586
603 1 Ar 16.0662 8.22975 0.0221734 0.23989 -1.57549 -1.15695 2.81235 1.31771 1.86699
1117 1 Ar 15.4231 8.56243 2.00106 -1.43609 0.137398 0.947882 -1.08915 -4.05922 -0.385389
3395 1 Ar 15.0002 8.05973 0.119213 0.119622 0.23046 -0.318113 -3.20017 -3.24593 0.365251
274 1 Ar 15.423 8.92175 0.782528 -1.23609 0.540253 -0.733499 13.2878 2.03942 -6.37088
3803 1 Ar 16.3967 9.22972 0.52275 -0.404163 -1.17739 -1.28453 3.98251 -0.463054 -15.8575
634 1 Ar 0.54937 9.65601 1.50742 0.433151 -1.06065 1.34094 5.67212 10.4347 -4.32365
236 1 Ar 16.3497 10.105 1.11217 -0.564772 0.712134 0.995147 -1.66438 5.59503 6.41384
206 1 Ar 1.54876 9.48422 1.08051 0.459775 -3.35439 -0.643053 1.35973 2.3729 -6.51605
1012 1 Ar 1.04353 10.7478 1.82797 -0.418724 0.945702 -0.284991 -3.0317 -1.24289 -4.79796
645 1 Ar 0.778131 10.4904 0.561126 0.329636 -0.0843921 0.0235462 16.7137 3.91705 7.5294
277 1 Ar 0.689887 9.41059 0.443837 -0.353993 0.2325 -0.241542 -13.528 6.7939 6.494
247 1 Ar 2.80313 10.4414 0.534849 -0.327796 -1.13516 -1.40798 -31.5985 7.36648 23.9018
217 1 Ar 3.68688 10.404 1.04947 -0.451563 -0.338337 1.42478 1.19843 -13.3032 -2.06387
287 1 Ar 2.32598 10.0404 1.61174 0.525815 -0.122272 0.791041 -2.62971 14.6318 -27.627
1414 1 Ar 4.26076 9.46833 2.0368 0.757142 0.181457 1.12442 -0.373342 14.4 -14.4089
1051 1 Ar 4.05673 11.0758 1.72916 -0.213616 -0.20796 0.821788 -0.634108 16.5645 -5.87749
696 1 Ar 4.26473 10.1026 0.0800604 -0.110963 -0.314755 -0.567425 -5.11184 -27.9134 -19.4898
297 1 Ar 4.21379 9.4484 0.901915 -0.336985 0.668163 -0.182991 1.37828 5.12716 6.06395
655 1 Ar 5.20567 10.1855 0.394685 -1.52216 -0.0487835 -0.607168 20.7166 2.11714 5.75192
1417 1 Ar 4.79117 11.7858 1.34266 1.00499 0.603243 -0.0597727 1.75115 -3.99548 -7.51817
294 1 Ar 5.85536 9.81475 16.3158 2.02417 0.263914 1.65216 -8.66595 -3.72141 -10.1769
304 1 Ar 5.83377 9.70806 1.06333 -1.33275 0.150259 1.41457 -8.86518 -11.9949 27.4514
259 1 Ar 5.86374 11.0316 0.939679 -1.58428 -0.343057 -0.51141 0.563276 -5.53184 5.72031
1422 1 Ar 6.94418 9.92523 1.3457 -1.49837 0.000868682 -0.779169 -6.77943 -2.53667 -9.17008
665 1 Ar 7.50175 10.0584 0.406237 -0.777299 -0.201783 -0.289017 2.37398 15.5326 6.118
3784 1 Ar 7.9838 9.89414 1.85603 1.46911 0.231513 -0.0642881 -12.8781 -11.3472 -14.3195
3867 1 Ar 8.44837 10.6921 1.06995 -0.214458 -0.18827 -0.385599 0.27495 -5.40006 5.87958
260 1 Ar 7.48422 11.0931 1.32776 -0.378925 0.61997 0.56249 0.479605 3.68854 -14.759
3823 1 Ar 8.70694 10.3347 0.0808512 0.131241 0.126684 -1.83279 3.37056 6.00127 0.644965
253 1 Ar 9.20109 9.93128 1.41711 0.535731 -0.0288998 -0.131094 -6.69081 -0.302505 -13.2304
3787 1 Ar 9.99365 9.73973 2.06796 -2.40602 0.394926 0.704546 4.78864 -1.30711 -4.31776
668 1 Ar 9.60587 10.72 0.724449 -0.336435 0.192067 0.844995 -3.33523 6.28446 2.93935
1458 1 Ar 9.46005 10.8565 2.30647 0.960202 1.4569 1.00164 3.48248 -7.29426 0.946892
669 1 Ar 11.6359 9.72753 1.18454 -0.722121 -0.0964543 0.805434 -0.747929 -3.55043 10.42
582 1 Ar 11.2259 9.66911 0.155837 -0.585835 -0.335273 0.28636 -0.407863 -3.7731 -6.19126
227 1 Ar 10.4506 10.7624 16.8119 -0.330257 0.195196 0.510088 6.58986 24.2572 -18.3642
195 1 Ar 13.1782 8.97408 16.7996 -0.283202 -0.788466 1.45746 -3.44059 3.02333 -5.6587
353 1 Ar 12.2314 9.00881 0.704184 -1.43661 -1.49212 0.186337 16.5255 4.66542 9.69631
271 1 Ar 12.9769 10.8491 0.121192 0.602975 0.518062 0.327128 26.2033 -5.24453 -20.636
996 1 Ar 13.8693 10.344 1.50221 -0.6033 -1.12807 0.430515 1.8494 -2.63773 -0.469972
230 1 Ar 13.6641 10.0044 0.476143 -0.136924 -0.521639 1.31647 -16.7596 -21.6842 -3.25838
194 1 Ar 14.6333 9.84684 0.0498224 0.219913 -0.655666 0.538567 1.87257 4.31077 23.9942
1073 1 Ar 15.0432 10.5224 1.29372 0.0446815 0.782117 -0.607132 0.897245 7.1418 1.87011
671 1 Ar 15.5254 10.3515 0.267342 -1.60034 1.3909 -1.29812 -2.97237 -20.8501 16.939
315 1 Ar 15.6669 9.57498 1.72956 0.538302 0.735265 -0.369297 -13.291 0.894315 -10.4575
241 1 Ar 0.143301 11.1076 1.16234 0.854233 -1.55171 0.026874 -46.1259 -47.9678 -7.91733
648 1 Ar 1.85607 10.6455 0.877178 0.689801 -0.28211 -2.46832 -16.9972 7.73157 -1.02336
245 1 Ar 1.23561 11.6448 0.255086 -0.476338 -0.220781 1.68308 5.14984 -6.61301 -5.42869
689 1 Ar 3.59815 11.6545 0.714642 0.66885 -0.720768 0.667057 12.3472 -23.4207 8.8528
3892 1 Ar 3.01224 12.6272 1.17847 -0.525316 -0.940513 0.176296 21.5387 7.81946 -4.62681
1089 1 Ar 4.43272 10.9857 0.572393 0.752235 0.340548 -1.08812 13.2171 21.942 1.2701
250 1 Ar 4.72788 12.5392 16.2241 0.309768 1.32763 -0.769801 -5.78451 -21.4776 -7.88782
690 1 Ar 4.36633 12.218 0.351234 0.117785 -0.937131 0.289993 11.545 20.5196 19.2952
3856 1 Ar 3.32615 12.2719 16.7907 -1.78111 0.462002 -0.519507 -12.123 18.3016 -25.5087
691 1 Ar 5.37361 12.7922 0.25155 1.58448 0.0809326 0.906023 3.89577 -9.22586 6.99677
3895 1 Ar 6.34822 12.2387 0.572556 -0.244838 0.689525 1.27204 4.02368 -23.209 -11.0251
302 1 Ar 7.91795 12.1106 0.46472 0.645809 0.0605764 -0.0077386 -2.86644 -4.55167 3.16956
300 1 Ar 7.04742 11.1804 0.333467 0.383517 -1.1537 0.759551 -12.1147 -1.65674 9.09182
656 1 Ar 6.33325 11.329 1.90826 -0.0617538 -1.0429 1.17522 18.5638 27.4574 -29.7307
232 1 Ar 8.42677 11.8478 1.37311 -1.07516 1.43861 0.437225 -5.70989 -17.872 -10.1918
3427 1 Ar 8.78934 11.5031 0.483956 0.487485 1.07765 2.81121 8.18036 -11.7975 -6.88591
3832 1 Ar 9.94671 11.8201 0.435237 -0.246373 2.04076 -0.48194 1.97384 -27.4621 10.8076
1461 1 Ar 9.45833 11.7222 1.43899 -0.314829 -0.748343 0.890571 15.431 -6.17457 -5.14514
626 1 Ar 10.8053 10.3516 0.895667 0.456683 -1.0038 -0.611837 4.02299 20.5539 6.33321
662 1 Ar 11.8074 11.9299 1.45262 2.30763 1.43907 -0.969942 7.15364 -18.7391 5.71461
3512 1 Ar 12.3771 12.1204 0.50294 -0.625228 -0.325271 0.543196 7.34961 -4.10085 14.5263
3830 1 Ar 12.2784 10.0889 0.3986 0.652164 0.543264 -0.975648 2.19082 -9.69132 -7.01839
351 1 Ar 12.8033 11.2429 1.02301 0.547168 -0.489513 0.200117 6.42046 6.02774 11.9439
3826 1 Ar 12.0099 11.1615 0.0363554 -1.55555 -1.3553 -0.610857 2.36241 14.6072 10.7727
273 1 Ar 13.724 10.4695 16.1771 -0.131805 -1.29482 0.278952 -21.2344 -4.1397 11.2346
360 1 Ar 14.7488 12.085 0.153136 0.625935 0.306722 -0.0939393 -15.9792 9.82186 10.047
321 1 Ar 16.318 12.0211 1.24863 0.1865 -1.23042 0.409639 5.08477 6.59407 -1.14268
687 1 Ar 15.9734 10.8688 1.79151 -1.16758 0.623153 0.0295914 -9.95613 20.2051 -6.27675
288 1 Ar 0.53847 13.0685 1.31411 0.942734 0.304101 -1.75594 -18.7296 3.41533 6.27565
368 1 Ar 0.476953 13.393 16.6108 -1.46075 1.07717 -1.06028 -5.93769 -0.442764 -3.4353
686 1 Ar 2.18758 13.3166 0.463933 0.463197 0.0455133 -2.0724 -0.968327 -0.795694 1.54953
646 1 Ar 2.28197 12.0839 0.714519 0.986274 0.0762508 1.02755 -12.4667 -13.4958 0.179565
677 1 Ar 1.2886 12.6818 0.763897 -0.577777 -1.23017 -0.681235 52.0903 6.70099 -1.51826
762 1 Ar 3.92839 14.0399 0.876443 1.26918 0.105649 -1.75699 -1.1706 0.278763 17.4027
730 1 Ar 4.51762 13.3561 0.0495163 1.45433 0.330829 -0.0405064 -3.48259 -0.0641344 24.8973
729 1 Ar 3.28262 13.3356 0.337863 -0.131818 -0.0227925 0.321837 -10.1867 -25.8646 11.8436
650 1 Ar 6.19469 13.1599 0.936264 1.54661 -0.931487 0.145759 -24.9697 -15.8993 24.8326
700 1 Ar 5.97072 14.2016 1.55844 0.439937 0.689859 0.89087 9.92943 7.1685 -10.6079
1094 1 Ar 6.14199 13.4085 16.6835 0.165767 0.892307 -0.784798 11.8587 -1.43326 -16.4102
3900 1 Ar 7.1708 12.4127 1.4639 0.934414 -1.0324 -0.60845 -0.680863 -2.6309 4.12362
339 1 Ar 6.86541 13.6087 1.65498 -0.639059 -0.415863 -0.247932 6.99631 -8.79108 4.02882
296 1 Ar 7.52243 13.0874 0.690731 0.787515 -0.48457 -0.109107 -6.73585 5.36083 13.2164
3056 1 Ar 7.3222 12.6534 16.5804 0.609757 -0.664884 0.144648 1.89013 36.6766 -6.54498
295 1 Ar 7.9251 13.4368 1.88206 0.72992 0.981169 -0.965576 -5.77249 14.8304 -4.29102
1538 1 Ar 8.53616 13.0342 1.15562 0.785322 -0.850318 -0.631539 -12.8966 8.20715 -0.86466
301 1 Ar 9.22242 12.4949 0.67187 0.111445 1.04278 -0.927839 -4.101 -11.1714 15.2772
3937 1 Ar 10.6287 13.372 1.0997 0.29471 -0.615315 1.63487 -2.42542 -0.747871 1.85939
3943 1 Ar 10.9556 13.0219 2.18966 0.217756 0.116945 0.374278 -5.68437 4.35837 -6.15868
387 1 Ar 11.3432 12.1221 0.386344 -0.271049 0.365725 -1.01365 -7.78622 4.15284 4.56943
746 1 Ar 10.558 13.3993 16.7793 0.415098 -0.575352 0.0418872 4.40492 -12.3799 -10.3301
1185 1 Ar 11.561 12.8507 1.15835 1.27051 -0.645196 0.784438 0.954455 24.0927 3.96406
3912 1 Ar 13.5705 13.4956 1.22172 -0.142222 -0.397887 -1.09257 -18.4879 -1.2258 -9.83611
3591 1 Ar 13.653 11.8562 0.605958 0.067747 -1.30242 -1.41702 -2.80941 7.575 -3.65388
316 1 Ar 12.7384 12.7285 1.50776 0.898205 -0.05777 -1.30211 3.52888 27.2563 -29.7857
3556 1 Ar 11.7468 13.1982 0.166386 -0.559556 -0.0500061 0.768892 -0.652672 4.18691 5.85132
670 1 Ar 15.2735 12.6231 0.901689 0.280608 1.07804 -0.227031 -12.0352 55.6865 22.3365
3924 1 Ar 14.582 13.4375 0.93417 -0.933019 -0.41898 -0.792245 2.65159 -9.60573 11.1619
726 1 Ar 16.2507 13.2378 0.455164 -0.252403 -0.306675 0.672202 4.81584 -2.28478 0.110217
318 1 Ar 15.7966 12.2318 0.180183 -0.643643 0.671479 0.266272 30.2314 -19.661 -28.7954
244 1 Ar 16.1162 13.1881 1.5959 -0.197848 -0.0328751 0.492337 -16.6497 -20.657 4.04985
3926 1 Ar 15.4501 13.9353 0.661492 -3.23029 -0.441619 0.0304804 -2.25209 -4.31754 -1.21392
758 1 Ar 0.321313 14.3634 0.288546 -0.349334 -0.293457 -0.620395 -11.8582 6.68971 1.6449
359 1 Ar 0.797549 14.6237 1.22461 -0.409291 -0.0481586 1.30377 15.6807 -18.8827 11.5957
3925 1 Ar 3.08994 15.0166 1.35632 -0.784398 -0.227909 0.372769 7.68995 3.4281 12.5466
1171 1 Ar 1.24997 13.8873 0.388513 0.328777 0.435601 0.240684 3.87882 -3.70092 -7.68325
367 1 Ar 2.06314 14.3521 0.940965 -1.41597 0.548602 0.564572 -10.8384 19.7747 -6.74254
376 1 Ar 4.64323 14.4291 0.172113 0.429416 -0.331016 -1.07488 9.0469 18.4395 -2.27705
7 1 Ar 4.16934 15.1929 1.58853 -0.976108 0.552248 0.43617 -14.6156 -8.01272 -21.2397
770 1 Ar 5.07152 13.7057 1.61544 -0.453661 -1.28326 0.198113 -8.36946 -3.599 -2.93014
736 1 Ar 5.45167 13.902 0.496765 0.821751 0.145056 0.595143 7.5904 -3.52051 13.0913
694 1 Ar 6.64775 13.9787 0.676425 1.57471 0.480249 0.231373 8.2971 31.6431 -9.68402
3940 1 Ar 7.10965 14.8692 0.997422 -0.447036 -0.48869 0.871324 -2.31915 -11.7721 2.87282
370 1 Ar 6.04551 15.6515 1.40266 -0.643354 -1.47625 0.797242 23.6588 8.76774 3.60293
3981 1 Ar 8.10308 13.9466 0.653335 -0.724949 -0.772063 -0.370837 4.70346 11.7221 13.4071
337 1 Ar 9.08925 14.5504 1.0736 0.0409163 -0.950717 0.177239 -40.7028 28.4974 -3.29483
3979 1 Ar 8.22965 15.0795 0.61734 1.86588 0.0764409 1.2868 -9.50764 -18.4076 -8.61691
308 1 Ar 9.24515 14.7051 0.0714848 0.289492 2.72583 0.215133 6.22515 -8.16399 -9.99357
745 1 Ar 9.9572 15.1434 0.797939 0.805015 1.62325 0.60793 3.52315 -10.7496 23.9436
749 1 Ar 12.4533 13.7117 0.875114 0.946644 -0.422077 -0.692468 11.6383 -33.0399 8.8457
346 1 Ar 11.442 14.043 0.824641 -0.740624 0.696728 -1.47046 -8.42015 -0.41899 8.19797
352 1 Ar 10.7973 15.331 0.294327 0.997013 -2.0924 1.46898 -3.97597 -4.39396 -26.0011
433 1 Ar 12.2202 14.6003 1.34275 0.948621 -0.849214 0.940032 -4.56491 18.2966 35.6748
3955 1 Ar 12.2906 14.555 0.354391 1.44895 1.74528 0.0313449 -0.6693 16.4907 -42.8929
3950 1 Ar 14.9512 15.3488 1.24761 3.05244 1.24311 0.952458 2.01111 16.655 -8.8299
39 1 Ar 14.8952 14.3714 1.52746 0.940737 0.122128 -0.555803 -26.1536 -25.0661 9.92233
357 1 Ar 15.0592 13.092 16.5915 -0.589439 -0.0730551 -0.549773 -1.19495 -17.9382 25.0963
722 1 Ar 15.0754 14.9453 0.271226 0.394107 -0.146185 0.0411492 -15.4617 0.735248 0.603185
314 1 Ar 14.1705 14.224 0.410407 0.591938 -1.24383 0.733235 42.0235 16.2695 -0.821527
317 1 Ar 16.7377 13.9372 1.36764 -0.381618 1.02636 0.387596 8.98395 26.2481 -14.0662
724 1 Ar 16.0649 14.7135 0.393641 -0.0425814 -0.349514 -0.88386 24.4927 11.6816 -1.93894
1083 1 Ar 16.7555 15.1769 1.11274 2.09656 0.449581 -0.719279 -10.2992 2.90374 3.7889
365 1 Ar 1.38771 14.9762 0.444787 0.999246 -0.472174 -0.402987 -3.26651 -4.99187 -11.0847
325 1 Ar 0.232029 15.4895 0.167832 -0.218711 0.183359 0.974384 6.79868 8.56737 -3.02458
879 1 Ar 0.987339 15.8609 0.839921 -0.0966278 -0.154055 -1.04937 -4.31983 10.261 -0.41526
49 1 Ar 2.84196 16.066 1.17702 0.909093 -0.445029 0.480494 0.982209 1.03117 2.50049
399 1 Ar 2.04385 15.4011 1.39853 -0.138157 -0.173029 0.458902 -12.5579 -5.36337 5.68027
3964 1 Ar 1.80247 15.8737 0.119871 -0.330812 -0.0536232 0.999668 11.4376 15.1415 27.6064
459 1 Ar 5.07104 15.8212 1.07428 0.2479 1.31866 0.593801 -21.1291 22.5295 -21.7923
3971 1 Ar 4.7772 15.4773 0.0756077 1.03893 -0.564383 0.67918 4.25047 2.93758 -1.30543
3613 1 Ar 3.90235 16.0816 0.94375 -0.0733008 1.51415 0.404756 -3.28414 -24.0986 -4.10463
374 1 Ar 4.89314 16.5277 1.8614 0.801276 0.260123 1.13053 -0.500094 -0.051085 -3.46852
380 1 Ar 5.13091 16.5039 0.227724 0.718149 0.802888 -0.713653 7.16264 -11.6206 -7.7427
336 1 Ar 5.83474 15.0741 0.523063 0.544321 0.641274 0.32056 -12.3114 -1.92978 8.27938
340 1 Ar 5.77422 15.8562 16.3236 0.177663 0.0378784 -0.84763 6.22411 -1.87371 6.71168