ITEM: TIMESTEP
9600
ITEM: NUMBER OF ATOMS
4000
ITEM: BOX BOUNDS pp pp pp
0.0000000000000000e+00 1.6795961913825074e+01
0.0000000000000000e+00 1.6795961913825074e+01
0.0000000000000000e+00 1.6795961913825074e+01
ITEM: ATOMS id type element x y z vx vy vz fx fy fz
798 1 Ar 0.334979 0.558192 16.7708 -0.874848 0.351665 -0.0349968 3.4932 -3.06612 -8.06701
45 1 Ar 1.16692 0.247083 0.636392 -0.641236 -0.511261 -0.254013 2.50383 -3.88949 5.95617
12 1 Ar 2.21248 1.18871 0.0611325 0.19721 -0.742889 0.729571 -17.3011 -12.2662 14.9903
46 1 Ar 3.98109 0.394018 0.161766 0.767959 0.171049 0.317085 -8.14078 5.96901 -11.9743
442 1 Ar 3.15107 1.09014 16.4493 0.148444 1.36735 -0.141935 1.43915 13.4553 12.0818
47 1 Ar 2.96479 1.36245 0.870398 -0.0796185 2.14479 -0.987107 24.6106 -33.5377 7.9464
401 1 Ar 1.97188 16.5679 1.37169 0.233793 -0.189849 -0.110262 -16.9885 -72.3737 -17.4853
91 1 Ar 4.28471 0.67763 1.8578 -0.794793 0.708611 -0.814122 4.26346 -24.7646 50.5834
489 1 Ar 4.05411 1.08754 1.02697 0.529539 -0.662041 -0.47093 -28.4298 22.8176 -32.2642
500 1 Ar 4.5765 2.02897 1.2152 -1.11613 1.51757 -0.629684 6.54359 10.2826 -13.5421
761 1 Ar 4.6061 0.20109 0.96767 -0.318251 -0.250887 2.03805 5.86543 -8.87346 -1.1472
16 1 Ar 5.09043 0.345313 16.4383 1.3309 -1.36636 -0.0559748 -7.68429 2.19888 -4.1443
457 1 Ar 5.04148 1.20448 0.748774 -1.59677 -0.197913 -1.28262 1.07764 -3.11949 -9.11488
334 1 Ar 7.70535 1.28021 0.961252 -0.0673197 1.03859 -0.900197 -13.2263 -18.9649 -6.40292
780 1 Ar 7.10869 1.2433 16.7313 -0.616132 -1.4184 -0.267097 -6.87563 -1.4159 5.13404
15 1 Ar 5.66575 2.26873 0.682523 -0.427186 1.52823 1.4442 19.7484 29.0074 10.8906
774 1 Ar 6.05746 1.35046 0.713414 0.221154 1.4326 -0.100294 2.58019 -21.1896 1.0366
383 1 Ar 8.62198 0.00993526 16.0795 -0.0545399 -0.32073 0.046214 -4.67128 -3.75597 6.01897
58 1 Ar 8.83955 1.03783 0.964064 -0.0390426 -0.264261 -0.357651 -8.94048 -3.05237 -4.04407
3944 1 Ar 9.05915 0.0149169 0.376348 -0.18437 0.413309 -0.0738052 1.63611 3.48814 -2.40141
3627 1 Ar 9.34041 1.02223 16.3781 -0.557978 -1.53899 0.637741 5.56669 -17.6165 -12.375
505 1 Ar 10.3957 0.917305 0.0365949 -1.67546 -0.049336 1.16471 -4.79164 0.54196 0.334976
21 1 Ar 9.82167 0.568828 0.937062 -0.509099 2.17115 -0.0454909 -18.8361 -7.468 -21.7847
419 1 Ar 9.85485 16.5038 16.376 0.37221 0.0277684 -0.0147336 0.196573 -0.127235 2.51265
474 1 Ar 11.0939 0.043261 0.0646379 -0.116678 0.544432 0.0184715 5.58802 6.87822 8.7955
29 1 Ar 11.6078 1.14001 0.781223 0.134944 -0.664533 -0.23898 -8.81841 -2.81295 -9.10642
388 1 Ar 12.7208 0.797829 0.92117 -0.000345031 0.527637 -1.23423 -9.91471 -33.0962 -19.6371
3991 1 Ar 12.391 0.910138 16.6294 -1.3845 0.33095 -0.140219 16.8112 14.4749 5.86295
429 1 Ar 13.788 0.59836 0.799123 -0.487952 0.673639 -0.830014 -7.27531 10.9163 -5.13891
33 1 Ar 14.7672 0.520574 0.574445 -0.326983 0.510976 0.98889 17.6209 -3.07048 7.90609
795 1 Ar 14.5919 16.7205 1.50478 -0.461573 -0.279341 -0.592965 -2.50495 17.0203 -19.911
35 1 Ar 14.2504 1.97115 0.998812 1.13095 0.00822273 -0.502133 -1.53474 -2.15283 10.0534
83 1 Ar 15.1441 1.80867 0.421977 -0.915561 -0.388991 1.41401 -6.77147 3.07953 7.86753
79 1 Ar 15.233 16.1766 0.513512 -0.0851407 0.386827 -0.692557 2.63735 1.17051 4.0394
438 1 Ar 15.3894 1.26814 1.2903 0.573333 0.465773 -1.1194 -14.1128 -4.11353 -5.08899
764 1 Ar 16.6206 0.966969 0.819828 -1.07386 0.180644 0.779627 4.13341 -2.21488 6.69624
434 1 Ar 15.688 0.894135 0.308886 -0.278504 1.23741 0.424889 -23.0971 8.62949 17.0102
479 1 Ar 1.27357 2.14779 16.7051 0.183975 -0.526442 -0.0186147 20.7202 9.97054 -4.13887
3688 1 Ar 0.347757 1.70362 0.0921275 1.20146 1.20978 -0.0854032 -0.79585 -11.4065 -1.09951
487 1 Ar 2.51788 2.12005 0.464017 0.810791 0.901992 0.140797 -18.8518 38.0139 -13.7993
10 1 Ar 2.29036 2.81492 16.4681 -0.574115 -0.0108947 -0.590177 -32.8862 -12.6161 23.7724
1170 1 Ar 3.26473 2.37288 16.4027 -0.374299 0.257641 0.470629 -0.839 -8.3152 6.3527
413 1 Ar 3.56784 2.19638 0.840297 -0.487203 -0.808254 0.905245 -6.0122 -4.54435 -4.61306
1134 1 Ar 2.99813 3.25656 1.14325 -0.766737 1.4864 1.35266 -3.98522 -0.273608 2.11102
3689 1 Ar 4.06581 3.06676 0.919788 0.358192 0.268099 -0.471492 15.4746 18.5869 1.86746
133 1 Ar 6.16884 2.80083 1.48928 0.233411 -0.269777 0.103877 -24.218 1.6589 -18.8636
414 1 Ar 4.84164 2.22754 0.158447 0.653728 -0.350242 -1.09039 -29.5178 -0.974473 -15.9825
95 1 Ar 6.70637 1.89943 1.21469 0.60421 1.05915 0.403171 8.88114 10.438 11.2795
3661 1 Ar 7.34988 2.27348 0.464603 0.498708 -0.811139 -0.0393317 2.87623 -6.27484 0.7646
379 1 Ar 8.38501 2.02129 0.95039 0.629173 2.24707 -0.160029 9.33283 28.7308 12.6837
64 1 Ar 8.03318 2.52129 1.98967 1.21523 0.0916672 -1.61556 0.442925 -22.8971 -10.8386
3695 1 Ar 7.83853 3.08257 0.977054 0.597766 -1.48628 -0.502659 -13.3334 -3.8504 10.8929
3701 1 Ar 8.65757 1.63862 0.0296483 1.35252 1.15106 1.08654 -1.30772 13.8983 -2.19523
97 1 Ar 8.86699 3.14695 0.91205 -1.4627 -0.271864 0.595092 22.2152 -25.3172 3.7317
912 1 Ar 9.64705 3.19859 1.63724 -0.881977 0.196432 -0.702048 -3.99768 13.1755 19.0006
103 1 Ar 9.7084 1.56371 1.10932 -1.26693 0.673497 0.0822225 3.97771 25.4312 -12.7626
31 1 Ar 10.8976 2.03111 0.199107 1.50531 0.81915 1.03943 2.27922 -5.57876 16.917
512 1 Ar 10.1467 2.70404 0.903207 0.494969 -0.57586 0.0327797 11.7368 -10.976 -8.49144
71 1 Ar 11.9358 2.00647 16.637 -2.55268 -0.794712 1.41575 1.98501 2.74922 0.607332
469 1 Ar 13.2322 1.56829 0.440825 1.44184 -0.312136 -0.518396 14.0126 -10.3561 -20.2239
67 1 Ar 11.0592 3.00671 1.67383 -0.64479 -0.396288 0.0706458 4.19178 -17.4314 -8.56483
1194 1 Ar 12.8641 2.47084 0.209449 -0.573942 0.0729189 -0.0789223 -19.2614 2.4865 -17.0222
3716 1 Ar 14.9273 2.86237 0.724125 -0.744204 -1.28509 0.131517 -18.6198 -22.7165 -13.6257
78 1 Ar 14.0777 2.41901 0.0941831 1.09814 1.16432 -0.292808 9.84836 2.16223 -36.3424
441 1 Ar 16.1613 1.84564 0.405902 0.4303 0.143038 -1.19319 5.76496 5.16252 7.56413
36 1 Ar 15.9221 2.91348 0.452356 -0.675678 -0.875298 -0.457561 22.9385 -15.4859 -0.0389108
42 1 Ar 0.362399 3.13977 0.369691 0.532566 0.142573 0.112016 -6.79272 -0.460753 -6.26399
523 1 Ar 0.872879 2.78312 1.22492 -0.782434 1.05883 -0.263109 3.46892 8.03381 -6.57138
48 1 Ar 1.15802 4.15537 0.843469 0.00371077 -0.124155 0.411952 9.5312 -2.63656 12.5954
452 1 Ar 1.8915 3.03494 0.98473 -0.899764 -0.233753 0.313092 8.08788 18.5069 -3.75344
92 1 Ar 3.37575 3.64223 0.20438 0.385535 -0.285436 0.715502 18.925 -3.13911 -1.92632
893 1 Ar 3.23599 4.09046 1.93371 -0.0951045 -0.991885 0.172475 -31.6592 4.3132 -26.074
486 1 Ar 2.93633 4.71577 0.718098 0.862982 -1.34661 0.195149 -8.06713 -1.62986 23.7617
3731 1 Ar 3.81593 4.31031 1.15496 0.404509 0.803495 -0.580583 19.7469 -2.71802 -26.2153
3692 1 Ar 5.9415 4.35379 1.41891 1.72683 0.410139 -0.0940663 3.18381 -8.24377 -5.33459
130 1 Ar 5.61543 3.50928 2.04264 1.02049 -0.215907 -0.685467 -7.67219 1.1673 -14.4869
529 1 Ar 5.28192 3.34424 0.961224 0.180931 -0.39328 0.217979 1.48981 -2.91828 -1.22678
132 1 Ar 4.5402 3.87682 0.291051 0.771582 0.730327 -0.862427 -34.8131 -17.6729 -11.0601
898 1 Ar 6.54908 3.35832 2.61018 0.542292 -1.47299 -0.994591 -7.38041 1.80719 0.815832
90 1 Ar 6.75836 4.14455 0.517547 -0.997225 0.203718 1.05115 4.12351 6.27814 3.17804
136 1 Ar 6.32095 3.25673 0.187633 0.227369 0.375813 0.554867 19.0892 -12.7277 11.2961
977 1 Ar 6.9969 4.56441 1.6502 0.0459427 0.174294 0.117928 3.01467 8.49955 26.1552
3659 1 Ar 6.88768 3.5836 1.45113 -0.273796 -0.456508 1.21511 -0.447906 -16.609 -0.0255482
538 1 Ar 8.01586 4.68499 2.18271 -0.21487 -1.68445 2.10959 17.6427 0.123767 -41.1878
974 1 Ar 7.81455 4.16497 1.21256 0.118843 0.055325 0.14897 3.71096 -4.89639 -11.7665
3741 1 Ar 8.83602 4.09151 1.32018 -0.987988 -0.231907 1.08959 -0.921623 15.2109 -15.1426
135 1 Ar 9.86994 3.88 0.773226 -0.579041 -0.3638 0.0256919 -0.310019 2.70256 -0.827867
494 1 Ar 9.64698 5.32292 0.737014 -0.215468 -0.320986 -0.393701 19.3024 5.46123 2.92522
432 1 Ar 10.9632 3.56652 0.784639 0.440568 -0.581769 1.0095 -37.1288 -25.1379 3.90378
73 1 Ar 12.2004 3.19983 1.00914 -1.00087 0.0992023 1.06347 3.54587 1.66832 1.09629
106 1 Ar 10.7897 4.34793 1.46349 -0.652385 0.0437064 -1.40204 -7.50776 -4.61338 -3.05837
506 1 Ar 10.8745 4.81915 0.279308 1.0708 -0.335122 -0.691654 -1.90446 -1.79591 -0.45748
66 1 Ar 11.7296 4.00561 0.404098 -0.0146923 -0.295819 0.185176 32.442 10.4236 -20.401
189 1 Ar 11.3667 5.1041 1.8673 2.62333 -0.170633 1.00937 30.0457 16.1463 -4.54284
3747 1 Ar 12.9361 4.04677 0.54773 -0.314626 -0.754522 -1.90352 -8.30836 -9.53463 -11.332
146 1 Ar 13.7163 4.48267 16.6539 -0.775525 -0.294896 0.40444 -18.0459 -23.6894 15.2137
475 1 Ar 13.5707 2.85262 0.826555 -1.35874 1.11073 -0.567561 6.92887 26.5536 30.9838
3674 1 Ar 14.3439 3.56353 0.137895 -0.332097 0.155574 -1.30614 0.355589 0.613688 1.00302
3641 1 Ar 15.4141 3.70504 0.0970188 0.26735 -0.964275 0.412125 3.74766 11.6704 -14.3224
115 1 Ar 15.0674 3.78499 1.07584 0.246963 0.365148 0.111725 -4.19157 17.6019 3.72496
3724 1 Ar 0.59751 3.94895 2.0904 1.52475 -0.810511 0.434542 -11.6059 -3.95574 -15.711
3642 1 Ar 15.6217 4.79889 0.692155 -0.915842 -0.361892 0.306476 -16.8769 -18.5547 27.6388
154 1 Ar 16.4645 3.96352 0.650733 0.885016 -0.347163 0.874015 -2.325 7.64992 4.35081
200 1 Ar 0.324114 4.72311 1.2591 -0.362027 0.0931813 -0.555432 -2.61001 -1.75367 4.3225
163 1 Ar 0.57451 4.20095 16.7842 -0.327935 -1.41216 -0.581482 -7.06081 5.95361 -0.148885
571 1 Ar 1.83125 5.74801 0.096355 -0.0726003 0.643405 0.353298 -16.8487 3.30243 -0.105365
3292 1 Ar 0.135304 5.19185 0.165668 0.766247 -1.1322 -1.01778 5.83169 -3.68562 21.297
157 1 Ar 2.45985 5.85579 0.962754 -1.37046 0.923809 -0.391491 10.7447 5.99486 0.751855
522 1 Ar 3.67546 5.09064 1.86376 -0.45087 -1.02431 -1.13043 4.59418 -3.61822 13.2679
3732 1 Ar 3.56231 5.56013 0.935736 -0.266243 1.06001 2.36451 -4.43497 4.13788 -1.63986
174 1 Ar 4.70178 5.5019 1.59978 -0.434841 -0.707003 -0.500834 3.57294 -2.81357 0.174539
129 1 Ar 4.91314 4.38456 1.06715 0.588064 0.254187 -0.428435 9.81695 18.2786 17.4179
3296 1 Ar 5.5998 5.25821 0.973744 -0.691088 -0.898209 0.771726 -7.68663 -11.3033 -19.8717
566 1 Ar 4.78157 6.16727 0.705463 0.246089 0.299756 -0.173283 24.4202 9.46269 28.6743
3735 1 Ar 6.75602 5.15811 0.857157 -0.0527097 -0.748287 -0.218018 4.07808 13.2508 -22.7767
139 1 Ar 6.88131 6.26596 1.24369 -0.745163 0.318325 0.00287061 -1.01352 2.98977 0.575762
3740 1 Ar 7.75228 5.56954 1.1853 1.4432 -0.427992 -0.74312 1.0192 -10.2435 -12.8206
219 1 Ar 8.03192 6.60284 1.45564 0.886743 0.251707 0.327695 4.61209 4.66852 -0.360534
180 1 Ar 8.8594 5.21341 1.46804 1.19279 -0.717171 -0.837079 -14.4845 -5.79471 5.79723
534 1 Ar 8.77995 4.89222 0.402475 0.439421 -0.0339573 0.850746 -13.915 -9.91945 -6.35038
102 1 Ar 10.5239 5.91615 0.0682475 0.348156 0.218986 0.311695 10.8194 -23.0168 25.3192
94 1 Ar 11.605 5.52925 16.5965 0.703661 -0.372872 -0.222646 -17.8418 -24.7226 1.56079
544 1 Ar 9.86223 6.44214 0.871828 -0.623028 -2.29133 -0.589073 5.07089 -4.80077 -8.27426
104 1 Ar 10.6402 5.63553 1.19013 0.281515 0.144778 0.065384 0.147382 0.103876 1.42737
148 1 Ar 12.0069 5.98096 1.61721 0.0532516 -0.446588 1.14893 -12.3348 4.73666 -13.3043
191 1 Ar 11.8105 4.97248 0.798638 -0.535558 -0.0183626 -0.628762 -0.886893 48.6784 -30.0376
155 1 Ar 12.8224 5.19286 0.328511 -1.36689 -0.912819 0.896003 0.30931 -70.0865 -17.3452
151 1 Ar 13.739 5.98325 1.20345 -0.537351 0.168827 -0.621449 -1.25109 -3.13354 1.34431
596 1 Ar 13.2117 3.56016 1.60968 0.438939 -1.50593 -1.21292 -0.617365 -1.91677 -4.38949
156 1 Ar 12.7033 6.01664 0.786821 -0.157542 2.278 0.52559 -11.9949 52.6408 37.7271
150 1 Ar 14.5292 5.35217 0.772889 -0.321351 0.0144583 0.157721 4.95585 -10.9043 -2.04133
559 1 Ar 14.8967 6.3781 1.76174 0.310692 -0.377695 -0.034753 -7.83351 10.1837 -10.5221
605 1 Ar 16.3511 5.4671 0.998769 -0.470948 0.643818 0.23408 9.25292 7.31161 3.46797
159 1 Ar 15.4899 5.9506 0.511693 0.618953 0.0115739 -0.0180595 11.7354 -3.36612 23.0388
3682 1 Ar 14.8406 4.58429 16.7797 0.50476 1.80668 0.476735 -3.32086 4.67464 -4.32699
3717 1 Ar 15.9793 5.08643 16.6131 -2.17279 1.2195 1.45109 -3.13167 6.70459 -29.6527
123 1 Ar 0.910352 5.58255 0.963735 -0.129386 -1.20884 -0.129242 -24.0523 11.0662 -7.58772
126 1 Ar 0.837381 6.26781 0.0250225 0.359176 0.298088 -0.572199 -19.1257 -18.4588 34.1975
599 1 Ar 0.124259 6.40225 0.872847 -1.07763 0.560347 -1.3802 4.77493 5.7386 1.6421
173 1 Ar 1.16198 6.60107 1.20599 -0.951081 -0.607552 1.10751 -5.32866 -2.78114 8.38029
211 1 Ar 2.05518 6.83462 0.722221 -0.398438 0.209762 0.698516 25.8474 -31.8705 -3.44016
963 1 Ar 1.72409 7.68317 1.04609 0.794471 -0.153523 1.76772 -11.444 45.134 15.4301
653 1 Ar 3.14217 6.69399 0.626058 0.252403 0.838631 -0.362185 -5.90297 -12.1385 -3.6478
569 1 Ar 5.30045 7.39125 1.18051 1.4211 0.956104 -0.137527 25.5929 30.1861 -20.9492
220 1 Ar 6.45662 7.40463 0.875724 0.219801 -0.172463 -0.524231 -5.29974 -6.32844 -1.69439
620 1 Ar 5.63088 6.6694 0.231624 0.276699 -1.07341 -0.233097 -14.3829 25.8959 4.26128
3817 1 Ar 4.84922 6.70172 1.69046 0.217912 -0.00251999 0.44823 -16.7621 -48.4895 9.20111
3779 1 Ar 6.30951 5.94354 0.219428 -1.908 -0.745153 -0.988646 12.0067 -17.8046 8.26397
3859 1 Ar 7.50653 7.19961 0.73156 -0.46123 -0.73263 1.16059 0.538613 0.875867 -2.75987
215 1 Ar 7.43783 6.11357 0.267686 0.429014 -1.70006 -1.41628 -3.04343 5.00177 19.782
183 1 Ar 8.25069 6.72747 0.0451329 0.0211284 -0.988577 -0.0402822 -2.56631 -4.38264 -4.22706
623 1 Ar 8.79113 7.24429 0.756426 0.375327 1.08001 -0.95328 -9.45198 -0.140496 10.8897
3836 1 Ar 10.8224 6.94352 0.5863 1.19517 -0.414465 -0.763573 -0.0313375 3.34209 -3.3731
3384 1 Ar 9.42292 6.98896 16.7793 -0.055181 -0.480706 -0.64412 20.1416 -10.3466 5.9023
539 1 Ar 10.4578 6.70336 1.81944 1.12837 0.302018 0.280372 -16.9021 4.71352 -14.8626
3785 1 Ar 10.0419 7.65604 0.976493 -0.638304 0.558255 1.01895 13.2904 -38.8847 -13.531
950 1 Ar 11.5096 6.11092 0.614855 -1.4725 -0.159933 1.43023 0.777528 5.11846 18.3727
627 1 Ar 11.7407 7.10225 1.28409 -0.771906 0.3036 -1.09193 5.96115 -4.4393 -5.91898
187 1 Ar 11.2673 7.46953 16.3358 -0.645834 -0.633275 0.90869 7.72813 31.2341 2.27436
989 1 Ar 13.71 6.88585 0.170101 -0.109691 -1.25091 1.083 -24.7908 5.3541 10.0523
196 1 Ar 13.9823 7.01806 1.2234 0.240682 0.214888 -0.491467 6.97903 -6.42163 4.96456
713 1 Ar 12.076 6.92268 0.189472 -0.217707 0.219565 1.30645 13.9107 17.4938 15.1256
988 1 Ar 13.9856 7.82896 0.492474 -0.0522597 0.397491 0.426417 6.75656 12.8389 6.87208
1074 1 Ar 12.8802 6.99082 1.33174 1.10926 -0.112077 1.03702 0.427349 -10.1946 -8.25897
993 1 Ar 14.943 7.07324 0.738162 0.797316 1.15248 -0.297573 3.23496 3.54967 1.3756
3790 1 Ar 16.0707 7.05895 0.628642 0.048808 -2.10789 -0.165424 2.57025 0.735797 -11.7941
922 1 Ar 0.470172 8.17946 16.4004 0.728752 0.00526805 -0.558193 -8.25414 20.263 14.3559
201 1 Ar 1.0386 7.19741 0.394722 1.61071 -0.242974 0.514402 1.14442 21.0098 -22.6666
608 1 Ar 16.709 8.36771 0.760778 0.171299 0.768466 -0.101129 -12.3652 -9.55622 1.62782
238 1 Ar 0.967925 8.37881 0.576108 -1.05384 0.544488 0.328905 14.0469 -8.58306 -18.9705
717 1 Ar 2.56667 9.48882 0.710495 -1.20103 0.941408 0.458002 -29.3305 -5.97796 8.21628
607 1 Ar 3.07583 7.77705 1.51178 1.63418 0.704177 1.8388 -8.09342 21.8357 -9.65479
1082 1 Ar 2.2597 8.63395 1.79558 -0.618434 -0.334835 -0.680604 9.72727 4.54274 -16.3065
647 1 Ar 3.25729 8.67111 0.621985 -0.373726 0.796249 0.455386 9.01263 4.46982 2.1995
3774 1 Ar 3.73502 7.52151 0.775709 -0.0193339 -0.375352 1.49745 20.5233 9.00103 -8.72817
652 1 Ar 5.43406 8.2418 16.7455 0.915913 0.852785 0.568213 3.42139 -4.65326 -7.16078
3016 1 Ar 5.39252 8.54572 1.16807 1.11947 0.87189 2.0855 3.12019 6.53391 -8.89141
621 1 Ar 4.66699 7.18249 0.29118 -1.4207 -0.821907 -0.904867 -2.69549 2.51292 -2.84722
628 1 Ar 7.08247 8.53663 16.4232 1.00231 -0.638531 -1.3815 21.8193 22.4915 -4.94583
660 1 Ar 7.19317 8.29158 0.880179 -0.404978 1.30723 0.337056 -1.83948 -6.09285 -6.28201
3819 1 Ar 6.41401 7.81687 16.5694 -2.06442 -1.5067 -0.0116269 -29.2739 22.9273 4.36987
141 1 Ar 8.04121 7.7734 1.53921 0.568096 -0.0744567 1.10651 -0.583566 -0.207609 -2.0169
224 1 Ar 8.13998 8.2224 0.251964 0.495578 -1.965 0.831356 -24.4297 -6.86461 13.622
3739 1 Ar 8.58185 8.76908 0.939897 -0.435457 -1.44328 1.06128 -6.55905 -2.83598 39.2176
3821 1 Ar 8.70466 7.63328 16.4888 -0.683801 -0.546449 -1.06826 3.40457 8.5327 -25.8188
613 1 Ar 7.69733 9.29692 0.544314 -0.417318 0.154585 -1.92712 -2.16663 -18.212 8.44064
186 1 Ar 10.6393 8.44137 1.17973 0.61717 -0.060709 -2.07652 19.8493 9.54783 11.6547
3781 1 Ar 9.38426 8.11417 0.415795 -0.0315447 -1.45207 0.343985 -26.6337 7.2714 -11.2911
586 1 Ar 10.4498 9.58864 1.03953 0.298598 -1.01866 -1.45519 -17.3943 -30.6947 26.6206
152 1 Ar 11.4175 8.16212 0.42825 0.244584 -0.575091 0.0188232 -0.106488 2.34271 3.14703
1354 1 Ar 12.5443 7.90669 0.762518 -0.0377646 -0.963122 -0.579437 1.09892 -1.69272 6.4214
594 1 Ar 13.4909 8.74941 0.973098 -0.228067 0.802978 -1.5279 -4.05528 2.7251 -4.90064
193 1 Ar 14.6823 8.5316 1.2682 0.199823 -1.12526 -0.265145 -15.271 -14.5668 -3.23867
3435 1 Ar 14.1864 8.84914 0.114164 0.413798 0.387813 0.523165 -6.82724 -29.5548 2.50732
603 1 Ar 16.2281 7.80092 16.6691 -0.184647 -1.59643 0.621334 -16.9004 18.85 -5.15526
1117 1 Ar 15.2893 8.5901 2.11159 1.68275 -0.108208 1.15702 -8.77626 -22.0383 3.10906
3395 1 Ar 15.0658 7.98624 -0.00387784 0.21199 -0.0531226 -0.497997 13.5547 10.6188 12.2255
274 1 Ar 15.2118 8.96161 0.470695 -0.43873 0.0192839 -1.03863 1.82218 -2.2807 -4.73849
3803 1 Ar 16.1897 9.35585 0.169137 0.131633 0.877027 0.493401 -3.2301 -19.6424 1.71167
634 1 Ar 0.841708 10.0525 1.32268 -0.966166 -0.486114 0.685861 -0.946185 -5.10036 7.86886
236 1 Ar 16.1643 10.107 0.920015 0.603764 1.1538 -0.357405 -5.92306 -2.6405 0.457996
206 1 Ar 1.49961 9.31509 1.01383 0.122155 0.268396 0.0264419 5.74288 -11.0454 -8.40903
1012 1 Ar 1.1262 11.0042 1.76552 0.219516 -0.0848786 0.613045 30.1846 -41.0841 -2.41597
645 1 Ar 0.779762 10.1243 0.164971 0.155233 -0.703725 -1.68821 3.73664 25.6688 56.0632
277 1 Ar 0.355919 9.29849 0.60186 -0.273077 1.17511 -0.431222 8.00034 0.201765 4.64972
247 1 Ar 2.56901 10.6034 0.628431 -1.12749 -0.179885 -0.144764 6.49332 -1.81364 -5.32434
217 1 Ar 3.54992 10.2972 1.15641 -0.631827 -0.304312 0.222167 -2.03566 9.13999 0.900559
287 1 Ar 2.09327 10.549 1.56264 -0.797793 0.141677 -0.444811 -9.8631 -8.1525 5.84522
1414 1 Ar 4.02112 9.65665 1.85627 0.424087 0.876668 -0.767111 11.133 9.48917 17.299
1051 1 Ar 4.07782 11.0845 1.89568 1.15756 -1.49482 0.654828 -16.3955 -18.7296 -0.68416
696 1 Ar 4.37875 9.84519 16.6771 -1.14671 -0.339217 0.257065 -20.3172 14.5972 -21.5047
297 1 Ar 4.11277 9.32971 0.790637 1.10967 -0.84992 0.166339 -3.32766 9.09664 -5.82544
655 1 Ar 5.13362 10.2806 0.425854 0.983087 -0.107825 -0.416741 9.27183 0.0209346 -0.672406
1417 1 Ar 5.07305 12.1319 1.04122 2.19763 1.26271 -0.104866 -32.968 7.77471 19.9533
294 1 Ar 6.05367 9.82287 16.3799 0.530606 1.03129 0.492108 -3.475 3.01579 -3.86385
304 1 Ar 5.76584 9.64478 1.09681 0.639341 0.417759 -0.171965 -5.81878 0.313562 4.22816
259 1 Ar 5.56899 11.0521 0.970157 0.255779 -1.47971 -0.451974 -17.8241 -28.5842 18.2674
1422 1 Ar 6.95261 10.1916 1.35931 0.0849752 0.226028 -0.461957 18.7225 -7.69491 -0.352582
665 1 Ar 7.57111 10.2787 0.33846 -0.385711 0.0449994 1.16806 -23.6373 -12.3062 24.6946
3784 1 Ar 8.06709 9.89666 1.71111 0.723845 -1.63951 1.2933 2.60778 -14.0232 -8.50218
3867 1 Ar 8.60977 10.5257 0.866713 1.76859 0.13499 -0.495094 -6.85733 6.06539 3.16101
260 1 Ar 7.60903 11.0317 1.07613 0.709376 -0.884273 -2.14938 5.40295 6.78711 9.19949
3823 1 Ar 8.51211 10.0761 16.7207 -0.2703 -0.450644 0.564325 11.8741 -13.8432 -7.63954
253 1 Ar 9.13372 9.65992 1.14048 -0.428144 1.31895 0.218293 -13.1055 15.3511 -5.8128
3787 1 Ar 9.81995 9.89876 1.87188 -0.370517 -0.512165 -2.4689 13.0303 -10.4365 8.58375
668 1 Ar 9.8726 10.567 0.989843 1.2311 0.208239 0.311137 -4.17504 6.85467 2.78847
1458 1 Ar 9.48682 10.8555 2.06641 0.861432 0.332964 -0.167764 -22.2506 -11.1249 18.016
669 1 Ar 11.5424 9.50343 1.39095 -0.0641567 0.0370874 0.861456 -17.8799 -5.25479 -28.9442
582 1 Ar 11.1237 9.39393 0.240184 1.30572 0.190042 0.898718 -8.70024 -0.0626196 13.3672
227 1 Ar 10.8648 11.2101 0.199007 1.08935 -0.34603 -0.113101 -5.43332 -5.3592 -20.131
195 1 Ar 12.9613 8.67177 0.0331208 -0.746307 0.485966 0.524825 -1.63725 6.74333 12.8127
353 1 Ar 12.2359 8.96281 0.787955 0.60884 -0.617715 0.550618 -6.25122 -13.8301 -9.89048
271 1 Ar 12.9739 10.8363 0.114883 2.42389 0.270241 0.71175 -2.97665 -7.55292 -49.8304
996 1 Ar 13.567 10.1889 1.50755 -0.364434 -0.0357302 -0.52509 7.093 0.624829 -3.65597
230 1 Ar 13.3538 9.84133 0.522871 -2.06959 1.26913 -0.115427 -3.95263 -4.23324 -7.06532
194 1 Ar 14.3117 9.80835 16.7113 -0.844497 0.464797 -0.651173 2.78784 5.77272 -10.7683
1073 1 Ar 15.0058 10.8113 1.38884 1.94812 -1.19345 -0.286575 15.4154 -7.03724 -9.49303
671 1 Ar 15.3137 10.0324 0.222249 0.727821 -0.635067 0.227106 0.119858 9.70842 7.94656
315 1 Ar 15.3195 9.40335 1.4141 -0.37394 -0.0248545 -0.856624 18.6744 7.81649 -3.33263
241 1 Ar 0.222014 10.7929 0.972209 0.329242 -0.298457 -0.825806 -0.123835 8.57916 -8.82569
648 1 Ar 1.32237 10.9317 0.586442 -1.13985 0.0315945 -0.226908 4.936 -17.3007 17.6321
245 1 Ar 1.28042 11.8165 0.128768 0.0663497 0.147152 -0.12315 10.1359 24.0128 -10.9421
689 1 Ar 3.67051 11.5557 1.03385 -2.19906 -1.65309 -1.10075 -18.6183 -11.637 1.38136
3892 1 Ar 3.06034 12.4417 0.885386 0.258458 -1.73363 1.01807 27.3458 -18.6078 10.1054
1089 1 Ar 4.56493 11.2147 0.600532 0.328494 -0.451757 0.702185 11.0408 2.76035 0.925659
250 1 Ar 5.41248 12.7731 15.9514 -0.240322 -0.879309 -1.435 -12.1378 5.30538 21.5137
690 1 Ar 4.14344 12.3736 0.627241 -0.0441561 -0.297356 0.768003 -2.20355 8.26917 -14.7338
3856 1 Ar 3.14105 12.2207 16.6237 0.103819 0.744787 -0.273517 9.25557 10.9948 7.34557
691 1 Ar 5.46085 13.1377 0.201168 0.334027 0.447401 -0.972174 -2.56072 1.2388 5.32616
3895 1 Ar 5.90988 11.8998 0.628908 -0.789543 1.13152 0.220481 58.3906 31.2118 -31.3178
302 1 Ar 7.92832 11.9242 0.496527 0.403732 -0.604338 0.852775 11.9342 -0.793613 -13.3083
300 1 Ar 6.83473 11.2724 0.333052 0.843663 -0.440374 -1.9978 6.31562 6.20139 1.46747
656 1 Ar 6.53956 11.1781 1.28305 0.160145 0.766758 0.48747 17.5739 -0.616741 15.5674
232 1 Ar 8.41811 11.9769 1.45861 0.000867518 -0.700184 -0.725219 -1.64237 -0.619065 5.80884
3427 1 Ar 9.11079 11.4787 0.854274 1.92191 0.228574 -1.43658 -7.22007 -6.04469 -22.5569
3832 1 Ar 10.1023 11.8525 0.509337 -1.1661 0.296405 -0.457108 -10.9684 5.59491 0.164573
1461 1 Ar 9.72178 11.7125 1.61442 -0.949429 0.494497 -0.159545 -32.0302 -34.0534 -15.1346
626 1 Ar 10.9441 10.4112 0.892687 2.21431 -0.273033 0.181014 21.554 18.44 -1.97461
662 1 Ar 12.3029 11.6565 1.69577 0.492708 -0.931009 -0.200032 15.8666 0.238233 -17.2654
3512 1 Ar 12.5672 12.0311 0.2894 -0.806819 0.816819 0.231047 30.8157 -13.7031 20.8393
3830 1 Ar 12.0792 10.0204 0.458138 -0.747662 0.15642 1.61872 -3.81543 4.65151 9.19193
351 1 Ar 12.9648 11.0128 1.05827 0.205364 -0.893071 2.06749 3.39628 16.0595 27.3281
3826 1 Ar 11.868 11.1241 16.6782 -0.471877 -1.5779 -2.22232 16.3481 3.56978 -11.6704
273 1 Ar 13.4977 10.255 16.1467 -0.720425 1.51038 -1.30089 1.51087 8.73102 30.9048
360 1 Ar 14.6428 11.8164 0.509276 0.795521 -0.458015 -0.795873 -3.30393 -5.98431 -7.99873
321 1 Ar 16.6445 11.8642 1.14707 -0.591839 -0.466601 0.160187 -5.78755 5.69043 -7.70937
687 1 Ar 16.0204 11.0243 1.5691 0.395204 -0.280084 -0.968585 -8.41403 0.52115 -30.7257
288 1 Ar 0.575073 13.1039 1.21144 1.08711 -0.75869 0.70112 -6.0826 7.64909 -3.17911
368 1 Ar 0.31166 13.7467 16.3461 0.797587 1.17682 1.20218 -0.787966 -16.5648 -13.2422
686 1 Ar 2.38158 13.089 0.599652 -0.571663 1.09803 0.964081 -21.7514 32.385 -6.77568
646 1 Ar 2.27957 11.7788 1.19416 0.579137 -0.30045 -0.176503 -15.1666 9.5719 -24.3277
677 1 Ar 1.40803 12.6123 0.87017 -0.779109 1.14954 -1.05733 15.2297 -15.8893 -14.8884
762 1 Ar 4.18312 14.0785 1.01252 0.0878407 0.660024 1.22694 -7.12382 5.89328 9.82877
730 1 Ar 4.48038 13.4454 16.6019 0.299782 0.0452243 0.301749 13.7607 -9.48794 26.9496
729 1 Ar 3.57984 13.3389 0.458124 1.28625 0.39195 -0.383327 5.71002 -10.0104 -7.32138
650 1 Ar 6.27471 12.9263 0.959325 -0.0532999 -0.394404 0.0205343 1.08587 2.21843 1.57402
700 1 Ar 6.04363 14.3423 1.93895 0.226236 -0.566235 1.39202 8.37072 3.47721 -7.42891
1094 1 Ar 6.42208 13.681 0.0224512 -0.0749375 -0.368208 0.462848 -8.44053 -35.0977 5.13964
3900 1 Ar 7.00889 12.0936 0.918044 -0.232541 1.20607 -0.313194 -7.41996 17.6289 15.0849
339 1 Ar 6.95837 13.6143 1.7145 -0.780762 2.18862 -0.682539 0.26732 -6.09478 13.3185
296 1 Ar 7.43958 13.3601 0.807343 1.03815 -0.777805 1.5106 -25.7154 -31.0018 31.7609
3056 1 Ar 7.32135 12.75 16.6851 -0.461177 -1.8443 0.862828 -55.9603 -46.5546 8.26248
295 1 Ar 8.11185 13.7692 1.83238 0.902428 -0.554394 0.070321 -11.833 12.0925 12.6524
1538 1 Ar 8.40001 13.1744 1.08763 0.0284454 0.624096 0.273071 28.3465 -17.0144 -4.70252
301 1 Ar 9.30812 12.5736 0.541675 -0.310479 1.04665 1.7445 -3.56636 9.94648 8.53581
3937 1 Ar 10.9218 12.8273 0.776195 -1.03258 -1.78829 0.390477 -3.31385 4.15332 11.4063
3943 1 Ar 11.2453 13.1271 1.96602 -0.792268 -0.791971 -0.880121 -13.4213 11.6589 12.1
387 1 Ar 11.5783 11.9721 0.502286 -0.52803 0.876792 -0.240085 -26.1027 56.4532 -17.8222
746 1 Ar 10.5933 13.5842 16.7262 0.225571 0.0291224 -0.340082 4.13306 -4.35941 -5.19755
1185 1 Ar 11.9047 12.618 1.41183 1.2182 0.446463 0.54176 11.4436 -10.6109 -20.9959
3912 1 Ar 13.4878 13.6315 1.03108 0.986298 -0.482092 1.4444 6.66905 3.40466 -6.48809
3591 1 Ar 13.6133 11.653 0.494699 -0.526266 -0.551881 1.42863 -18.3941 9.52008 21.4953
316 1 Ar 12.9926 12.6923 1.07884 0.53474 -0.394287 0.757748 -34.0927 -22.2862 -14.9949
3556 1 Ar 11.8837 13.0681 0.314092 0.343855 -0.21169 0.488666 -13.6391 -9.47839 -3.32154
670 1 Ar 15.5147 12.917 1.00861 -0.967911 1.41659 0.593886 2.50707 8.89069 -15.2902
3924 1 Ar 14.6852 13.4772 1.21748 -0.49777 -0.0627999 -0.0739634 -14.4021 -6.99745 -1.61726
726 1 Ar 16.5567 13.3319 0.339758 0.507637 1.55738 -0.878897 -17.3454 15.784 8.01317
318 1 Ar 15.5998 12.087 0.205441 -1.1938 -0.630911 -0.780006 12.883 6.01181 -7.18892
244 1 Ar 16.3472 13.096 1.57307 -0.597124 -0.0140519 -0.0722857 -3.21417 -8.59403 11.2581
3926 1 Ar 15.3761 14.0887 0.619058 -0.32446 1.45408 2.44578 11.1628 -3.67502 -12.0155
758 1 Ar 0.237379 14.4187 0.326174 -0.30085 0.0581734 -0.411973 0.68599 3.28722 4.5421
359 1 Ar 1.03339 14.4671 1.53901 -1.3359 0.717149 -0.29513 5.42725 -7.17133 -18.4372
3925 1 Ar 3.02637 14.9849 1.24374 -0.0105531 0.312164 -1.29275 2.93869 -5.71774 4.57549
1171 1 Ar 1.30098 13.8697 0.495564 0.514831 -1.08697 0.619785 -16.1817 -20.5954 12.3942
367 1 Ar 2.06715 14.4253 1.13588 0.711981 0.629822 0.0886317 9.86448 -13.6779 0.773315
376 1 Ar 4.65823 14.4429 0.153474 -1.38639 1.03094 0.655922 -1.13959 -9.29001 -3.59596
7 1 Ar 3.95586 15.1312 1.60708 0.955082 -1.26289 -1.1891 22.0753 3.38881 0.603818
770 1 Ar 5.05369 13.7729 2.04527 -0.943065 1.96387 1.31946 -3.49419 3.80331 -3.98455
736 1 Ar 5.45138 14.0787 1.01354 -0.814507 0.0250956 2.90505 -3.04186 -6.08994 -0.394182
694 1 Ar 6.8423 14.334 0.965497 0.84412 0.46338 1.02335 11.0648 -8.93873 -4.40337
3940 1 Ar 7.29862 15.3706 0.992289 0.487115 1.04215 -0.789868 -3.95318 2.72255 0.903534
370 1 Ar 6.34838 15.5645 1.64389 0.442709 0.341094 -1.22201 6.8368 2.85628 2.63482
3981 1 Ar 7.90913 14.2633 0.773224 -0.300556 0.942493 0.489026 5.73667 3.27643 10.2626
337 1 Ar 9.00396 14.601 1.44662 -1.26844 1.49845 -0.0248875 -11.4932 -33.0152 -15.5659
3979 1 Ar 8.28623 15.2013 0.567231 0.643963 -0.178893 -1.56949 14.3742 11.0216 9.28296
308 1 Ar 9.58285 14.7214 0.210213 1.81525 0.446764 0.495903 -13.5649 12.7176 -2.5461
745 1 Ar 10.0075 15.1695 1.07387 1.21654 -0.878992 -0.258241 4.1916 -14.8455 -13.7499
749 1 Ar 12.3991 13.577 1.09002 -1.77775 0.299802 1.59308 -3.97563 4.27126 -5.4445
346 1 Ar 11.3871 13.9216 0.775709 -0.800643 -1.70605 -0.243513 -5.2578 -3.77448 2.05859
352 1 Ar 10.8317 14.8098 0.47381 -0.119536 -0.678895 0.542505 9.69066 -4.13032 -4.38886
433 1 Ar 12.3083 14.7945 1.28647 0.164907 -0.449035 -0.14532 63.1778 16.0204 -20.6567
3955 1 Ar 12.0522 14.6093 0.293868 -0.639909 0.991471 -0.586954 2.81782 4.47456 -11.1454
3950 1 Ar 15.3981 15.3163 1.19651 0.167729 -1.33043 1.57983 -34.2143 19.1053 -9.96594
39 1 Ar 14.7995 14.507 1.3514 -0.856385 0.265154 -0.713285 -16.1042 4.54746 12.5711
357 1 Ar 14.9435 13.1585 0.0685046 0.652202 -0.0835028 0.0633337 -1.77311 -5.1329 16.4269
722 1 Ar 15.0238 15.1001 0.136439 1.0754 1.29758 -0.232321 -8.76161 -10.8692 2.96348
314 1 Ar 14.2025 14.1588 0.464862 0.37522 -0.479621 -1.38895 -0.654721 8.04339 1.53013
317 1 Ar 16.7223 13.9742 1.2848 1.3867 0.234087 0.731201 16.0608 13.5467 -10.6508
724 1 Ar 16.0178 15.0475 0.300132 0.528126 0.886762 -0.795763 16.5085 1.50978 20.3029
1083 1 Ar 0.347715 15.155 1.07606 0.624486 -0.169232 -0.521334 -18.2166 -2.51094 -11.4416
365 1 Ar 1.39699 14.9131 0.522433 -0.176095 0.455439 1.72376 -17.5232 2.88952 16.3565
325 1 Ar 16.7686 15.9192 0.135797 0.719882 0.7168 0.0767975 -2.75107 2.59639 16.6544
879 1 Ar 1.14472 15.8558 0.848347 1.10677 -1.91803 -0.470343 0.0416975 16.943 2.9843
49 1 Ar 2.82237 16.0561 1.02091 -0.499373 -0.926231 -0.22685 9.91371 1.25297 21.5429
399 1 Ar 2.09225 15.4647 1.48372 0.279733 1.51381 -1.52508 -33.1098 -3.94236 -28.6908
3964 1 Ar 2.04706 16.2611 0.330447 0.174098 1.21923 -0.670643 -3.35203 -23.9098 23.2282
459 1 Ar 5.16472 15.6522 1.23704 0.59942 -0.221405 -0.195106 0.948744 15.0812 -21.4529
3971 1 Ar 5.04606 15.3852 0.0408205 0.131773 0.269767 -0.784188 -1.51256 4.28335 1.15178
3613 1 Ar 4.03802 15.8408 0.751086 1.18342 -1.23466 0.848412 26.2442 34.8734 27.0538
374 1 Ar 5.14814 16.5619 1.75206 -1.44367 -0.496625 -0.376756 6.52373 -4.93975 7.52268
380 1 Ar 5.1881 16.3667 0.322536 -0.542158 -0.505971 0.808102 1.86579 -3.23364 5.47898
336 1 Ar 6.07979 14.9779 0.848505 -0.61655 0.389693 -0.279163 -12.9026 17.9883 1.55889
340 1 Ar 6.04485 15.3858 16.4945 -0.531393 0.490058 -0.132613 17.3451 10.7667 -1.33961