ITEM: TIMESTEP
9800
ITEM: NUMBER OF ATOMS
4000
ITEM: BOX BOUNDS pp pp pp
0.0000000000000000e+00 1.6795961913825074e+01
0.0000000000000000e+00 1.6795961913825074e+01
0.0000000000000000e+00 1.6795961913825074e+01
ITEM: ATOMS id type element x y z vx vy vz fx fy fz
798 1 Ar 0.656035 0.411465 0.181369 0.0909911 1.24818 -0.97998 22.9097 -3.17263 15.2588
45 1 Ar 1.46073 0.0667302 0.953622 0.163364 -0.512726 0.86099 -10.9273 -32.0936 21.4308
12 1 Ar 1.45323 0.960616 0.538265 -0.859941 0.903702 0.997087 1.84636 22.6983 -16.2072
46 1 Ar 4.03994 0.207888 16.759 -1.29856 -0.338528 0.22693 -0.317516 -1.00507 -1.78592
442 1 Ar 3.09443 0.927568 16.3677 -0.157322 0.046284 1.6769 -7.22202 -5.60253 16.6282
47 1 Ar 3.03839 1.48231 0.592512 -0.0310711 0.792627 0.58104 -10.9204 3.43393 -10.6628
401 1 Ar 2.3539 16.4469 1.50251 0.818542 0.149224 1.25204 -6.18322 12.2757 -10.788
91 1 Ar 4.33168 0.941333 2.22669 0.830304 0.366109 -0.202789 7.75917 -5.10114 -8.24057
489 1 Ar 3.97144 1.35023 0.942707 1.51781 0.207906 -0.0519853 16.0538 -10.6327 1.41499
500 1 Ar 4.68482 2.07133 1.15024 0.702007 -0.294425 0.783263 -2.63253 12.4384 9.10444
761 1 Ar 4.32338 0.100335 1.4039 -1.21676 0.781071 -0.0306875 -12.3645 5.28254 -1.32416
16 1 Ar 5.17895 0.13529 16.5491 -0.455432 -0.192216 -0.0647043 -9.27897 18.6883 0.201336
457 1 Ar 4.91455 1.02987 0.365131 0.778362 0.243095 -1.12892 -4.38786 -0.41367 -4.34661
334 1 Ar 7.66361 0.33514 0.781546 -0.178784 -0.213943 -0.906612 3.36925 4.56649 -19.7723
780 1 Ar 6.90957 1.60488 16.7778 -0.356287 0.0385143 1.08334 4.74562 -1.74224 -1.29978
15 1 Ar 5.68972 2.46526 0.126716 -0.578365 -0.057705 -0.5818 -14.3504 35.9788 -12.577
774 1 Ar 5.60119 1.75238 0.782766 0.454711 0.305708 -0.103441 14.4046 -24.7754 12.3297
383 1 Ar 8.78849 0.11007 15.9951 1.09106 0.0462755 -0.0545005 -1.25464 -20.7424 -4.41985
58 1 Ar 8.78313 1.05848 0.761654 1.1524 0.220561 0.0361392 -19.3573 -18.1054 -4.7228
3944 1 Ar 8.6117 0.0712889 0.321852 0.0243984 -0.563305 -0.607125 7.15017 5.41496 6.07146
3627 1 Ar 9.25989 0.756265 16.5664 -0.162089 0.858389 0.835105 12.0987 12.1983 20.0044
505 1 Ar 10.4881 0.912456 16.4293 -0.117944 -0.165675 -0.916511 0.735644 6.73328 1.133
21 1 Ar 9.93218 0.736053 0.631055 -1.79351 -0.307012 -1.29401 -48.9593 15.2296 12.7461
419 1 Ar 9.99443 16.4596 16.6179 1.16466 0.183272 0.240637 2.27554 5.01155 -13.7395
474 1 Ar 10.8056 0.370416 0.4811 -0.0698013 0.743193 -0.985598 22.6175 -21.0506 18.7642
29 1 Ar 11.3839 1.18445 0.720937 0.875386 -1.32819 0.550574 9.11338 12.1023 4.38228
388 1 Ar 12.9922 0.985784 0.783867 0.939723 -0.12061 0.00322083 9.6809 18.9534 -18.3811
3991 1 Ar 12.2556 0.716567 0.0708032 0.389175 0.0284778 -1.50608 1.97816 3.84942 -6.90004
429 1 Ar 14.1038 1.1578 0.8952 0.310037 -0.995119 -0.552525 -8.12983 5.38222 -58.3574
33 1 Ar 14.8979 0.650378 0.302118 0.797893 -0.171073 1.28606 -9.01017 2.42661 2.42498
795 1 Ar 14.3581 16.436 0.934575 1.44891 0.921299 0.598087 9.45835 -2.73156 -3.88869
35 1 Ar 14.8662 1.70893 1.32385 -0.0720903 -0.15073 0.441335 21.1583 16.1694 -17.1125
83 1 Ar 15.1357 1.91894 0.294954 0.315965 0.0252313 1.19716 3.29424 -1.98674 -4.84108
79 1 Ar 15.425 16.6015 0.717145 -0.412268 0.901523 -1.74302 -1.61146 -3.18626 6.66356
438 1 Ar 15.8482 1.41226 1.30007 1.10278 -0.204115 -0.143461 6.71236 7.8796 -1.29848
764 1 Ar 0.0493149 1.25871 0.744063 1.39043 0.124505 0.0620624 -7.0792 -21.9572 41.5162
434 1 Ar 15.8778 1.02557 0.293644 -0.545521 -1.39392 -0.884563 2.69764 2.1149 -3.83499
479 1 Ar 1.412 2.23257 0.0558544 -0.172103 -0.349599 -1.61281 -1.81264 -28.0642 21.0534
3688 1 Ar 0.226386 1.71766 16.7138 -0.251772 -1.05411 -0.651535 25.2954 8.16164 -35.081
487 1 Ar 2.53874 2.42676 0.541034 1.37374 -0.535085 -1.15867 -2.33831 -6.70477 1.52562
10 1 Ar 2.18109 2.62106 16.3287 -0.617937 -0.39628 -1.24799 1.05695 8.36587 -15.0141
1170 1 Ar 3.14347 2.21568 16.3763 -0.141649 -0.898064 -0.0106943 7.94899 -9.06719 1.74146
413 1 Ar 3.63967 2.42691 0.613778 0.493674 0.0356433 -1.11687 4.28819 3.46033 -2.01253
1134 1 Ar 2.90286 3.24871 1.15315 -0.688746 1.55307 -0.762907 13.9782 -18.3498 15.7152
3689 1 Ar 4.12361 3.2134 1.31377 -0.158771 -0.436664 0.773754 -4.6546 -8.1486 -16.1131
133 1 Ar 5.72851 3.00826 1.19637 -0.321395 -0.053856 -0.489249 7.76142 0.547247 3.71728
414 1 Ar 4.41025 2.07293 16.6785 0.420894 0.251503 0.967862 4.63293 1.7393 3.42435
95 1 Ar 6.67697 1.90045 0.995137 -1.10015 -0.385075 0.640849 -16.7541 10.5937 9.19626
3661 1 Ar 7.6109 1.50468 0.942673 -1.32905 -1.43711 -0.0856134 17.7872 -7.88677 -35.6626
379 1 Ar 8.52907 2.14331 0.753842 -0.359754 -0.121266 -0.651102 8.91642 5.39642 8.78468
64 1 Ar 7.94799 2.21781 1.67338 0.0229224 1.30934 1.1283 -0.173288 34.5078 -9.66085
3695 1 Ar 7.22937 3.07555 1.12408 -0.0234706 -1.62966 -0.204383 -3.49519 -6.53056 1.10127
3701 1 Ar 8.30799 1.5924 16.6886 -0.793728 0.692937 0.651231 -1.31006 2.46129 -2.10332
97 1 Ar 9.25968 3.0913 0.969128 0.191722 -0.0211013 1.57714 -1.65189 -0.98519 2.81896
912 1 Ar 10.3239 3.70135 1.30378 2.22625 0.684835 -0.824606 0.154478 -9.58408 -2.66694
103 1 Ar 9.46083 1.71775 1.06153 -0.211041 -0.239189 -2.03546 23.8676 18.3954 10.1764
31 1 Ar 10.4265 1.66892 0.518334 -0.476227 0.954363 -0.804443 -12.0749 -8.30758 8.72059
512 1 Ar 10.2221 2.52314 1.67479 -1.13279 0.57386 -0.020809 23.6354 1.79339 -8.16406
71 1 Ar 12.425 1.93286 0.317923 -0.401567 -1.17883 0.43408 11.8612 -22.8826 -8.46632
469 1 Ar 13.4448 2.02955 0.464418 -0.753872 -0.253671 0.24896 13.7056 2.76074 17.9067
67 1 Ar 11.2736 2.65592 1.55266 -1.18518 0.51714 -0.652865 32.28 -19.6168 -10.938
1194 1 Ar 12.9015 3.14148 0.481998 2.62016 -0.28868 -0.379164 11.9439 -6.09347 14.7083
3716 1 Ar 14.9534 2.82544 0.907741 1.02164 -0.455196 0.880984 14.5483 -7.0255 -3.28791
78 1 Ar 14.1354 2.73333 16.7192 1.07214 -0.224625 0.308561 -16.2497 -15.7635 8.17385
441 1 Ar 16.319 2.30845 0.625308 -0.60947 0.833366 0.674875 -8.50169 -8.54423 17.879
36 1 Ar 15.665 3.21855 0.0126626 -0.535191 0.0770831 -0.832339 17.5192 -22.3698 6.36035
42 1 Ar 16.7253 2.69237 16.5719 -0.285541 -0.524839 0.029845 9.51799 24.7398 -13.5464
523 1 Ar 0.443808 3.02311 0.927649 -0.266495 1.35483 -1.12058 -12.4214 7.85181 -0.334998
48 1 Ar 0.83167 3.97357 0.668198 -1.05724 -1.06867 -0.257379 -0.0977238 8.9836 4.24538
452 1 Ar 1.63123 2.84881 1.04793 0.0552975 -0.318921 1.45712 -2.39261 2.18655 -1.62431
92 1 Ar 3.55687 3.54076 0.319903 1.2421 0.20616 0.632531 -5.65918 -0.672238 1.73522
893 1 Ar 3.04227 4.09983 1.99708 -0.722117 -0.984982 0.222994 -1.50545 -15.869 -18.0104
486 1 Ar 2.66393 4.1665 0.822421 1.20247 -0.581185 -0.952245 27.2659 53.4278 2.206
3731 1 Ar 3.72451 4.36037 1.10027 -0.795977 -0.86762 0.0933834 7.6169 -23.7604 0.462329
3692 1 Ar 6.08602 4.70768 1.66671 -0.609206 -0.145542 -0.0402667 0.467442 4.96159 -1.10481
130 1 Ar 5.58034 3.88552 2.05806 -1.01732 0.843848 0.19379 -0.0630841 1.26231 23.099
529 1 Ar 4.89891 2.9567 0.554271 -0.834477 -0.228314 0.802165 -18.9877 8.33137 4.77368
132 1 Ar 4.47989 4.06014 0.228831 0.214652 -0.333114 0.00740331 4.07214 1.74216 3.6997
898 1 Ar 6.69856 3.53455 3.03998 -0.561722 1.06857 -0.43231 -0.842152 2.07621 7.53268
90 1 Ar 6.52051 4.23657 0.847649 -1.02716 1.72145 -0.703973 1.70279 -17.7721 1.65874
136 1 Ar 6.67064 2.69089 0.189024 -1.00858 -0.867865 -1.13079 2.94847 0.407345 6.38713
977 1 Ar 7.07377 4.7523 2.37993 -1.44269 0.473574 0.0481203 -40.5771 19.5867 -27.6314
3659 1 Ar 6.73787 3.806 1.87303 -0.122727 0.493871 1.27256 -12.1139 19.3161 -6.9404
538 1 Ar 8.01945 4.80627 2.12619 -1.6297 0.272083 0.0734742 42.8054 -2.95388 -9.58922
974 1 Ar 7.65198 4.05296 1.16003 0.112533 1.11451 -0.00180281 -1.22546 11.9098 17.2378
3741 1 Ar 8.86256 4.24047 1.13806 0.00692236 -0.312884 -0.493258 4.67192 -22.7582 -12.3319
135 1 Ar 9.75352 3.79516 0.30398 -0.557659 -1.69709 0.625261 -2.45055 -6.61658 9.43761
494 1 Ar 9.7295 5.12238 0.348085 0.118086 -0.0662938 -1.19687 -1.45364 -0.814496 -0.431695
432 1 Ar 10.7125 2.75598 0.729225 -1.14411 -1.09923 -0.441803 -18.5603 15.5651 -0.433325
73 1 Ar 12.1264 3.34946 1.45248 -0.616884 0.998768 0.338651 11.2458 -28.4825 -16.5223
106 1 Ar 10.9162 4.53211 0.885989 0.657195 0.881864 0.865684 2.96354 -4.28434 -5.22245
506 1 Ar 10.4285 4.3977 16.6371 -0.813428 0.904285 -0.531259 18.721 12.7888 -1.3526
66 1 Ar 11.6102 3.71333 0.607083 0.857798 1.01521 0.0859624 -6.56562 1.24526 -5.78918
189 1 Ar 11.4472 5.02719 1.78287 0.512038 -1.20261 -0.741114 -19.469 -6.57892 24.1056
3747 1 Ar 12.5899 4.09348 0.860065 0.357019 -0.350079 -0.569127 -1.04928 8.30889 4.35882
146 1 Ar 13.5153 4.09732 0.391883 -0.903637 0.485841 0.103195 11.1886 4.4739 -8.60402
475 1 Ar 14.055 3.36822 0.98417 0.83378 0.141999 1.90004 -24.8433 -0.242578 -25.6224
3674 1 Ar 14.6882 3.56246 0.163881 2.01509 0.422038 0.409865 -0.770752 27.2435 3.17436
3641 1 Ar 15.5876 4.18657 0.362387 0.452033 0.320349 -0.176482 4.233 7.47218 13.7612
115 1 Ar 15.2077 3.7898 1.29819 -2.03752 1.20978 0.22265 -16.6413 7.3966 -6.7561
3724 1 Ar 0.15917 3.62104 1.74301 0.147758 0.0323432 0.856455 12.7338 16.4982 18.2545
3642 1 Ar 15.9117 4.96014 1.06967 -0.714526 0.316016 -0.464819 -15.1841 -16.3616 -4.05183
154 1 Ar 16.5437 4.11726 0.974132 -0.0331803 -0.928625 -0.909998 0.144745 10.267 -22.8474
200 1 Ar 0.18704 5.01475 1.23717 0.12176 1.44266 -1.26048 -32.5508 -20.1552 28.1872
163 1 Ar 0.82529 4.49301 16.4443 -1.23249 -1.02366 -1.60576 0.395847 -2.80549 -0.352097
571 1 Ar 1.31901 5.62866 0.0538087 0.637006 -0.899621 -0.717515 35.9335 4.19694 11.441
3292 1 Ar 16.5988 4.77941 0.151755 0.431124 0.278185 -0.814113 -1.01692 -12.5459 5.26556
157 1 Ar 2.10984 5.62526 1.15236 -0.700664 -0.162652 -0.571089 2.5842 -11.5661 -11.9155
522 1 Ar 3.92729 5.04562 1.90737 0.621216 -0.481167 -0.96298 2.4672 -2.35243 3.8085
3732 1 Ar 3.18838 5.22948 1.19907 -0.988985 0.587823 1.19004 -16.9553 1.2564 4.25117
174 1 Ar 4.94483 5.62214 1.54608 0.403675 -2.09524 0.453846 -5.97994 -1.99767 13.6702
129 1 Ar 5.11241 3.94663 1.19362 -0.737188 0.155157 0.291044 -16.1774 2.94153 -29.6782
3296 1 Ar 5.45193 4.89697 0.562141 -1.2563 0.111071 0.109463 0.798764 -0.456299 2.49391
566 1 Ar 4.58251 6.14603 0.730709 -0.883897 1.52426 0.00878162 -1.7094 19.9924 -9.00332
3735 1 Ar 6.68392 5.27231 0.725728 -0.44052 0.560337 0.0955512 -9.86128 24.2493 9.87055
139 1 Ar 6.80816 6.21009 1.49407 -1.44526 0.402026 -0.0701027 9.86177 -11.0513 -16.6217
3740 1 Ar 7.78498 5.3901 1.27051 -0.582354 1.54036 -0.71306 -4.40785 -10.8208 -36.7608
219 1 Ar 8.16391 6.79243 2.00663 0.0551188 0.0445227 1.7612 0.939668 0.0673433 -9.3361
180 1 Ar 8.85682 5.23456 1.20159 0.0620487 1.0583 -0.172071 6.33242 25.3886 0.320011
534 1 Ar 8.4049 4.91666 16.6311 0.483798 0.223637 -0.350804 1.79895 1.5982 5.56788
102 1 Ar 10.6958 5.59838 0.067806 -1.06516 -0.169981 -1.07933 -0.643447 0.414091 -14.2211
94 1 Ar 11.7699 4.995 16.6701 0.731214 -0.386677 0.0292448 -0.727241 2.18186 0.339695
544 1 Ar 9.91812 6.31318 0.679414 0.843118 -0.0354891 -0.0573766 8.15841 15.2966 -29.0815
104 1 Ar 10.6489 5.51577 1.1005 -1.13416 -0.298076 -0.753127 -17.8756 -4.03431 20.6357
148 1 Ar 12.2653 5.79907 1.64621 1.52377 0.442998 0.286221 6.40324 -8.67663 -24.7499
191 1 Ar 12.0057 4.99435 0.969087 0.120634 0.136252 0.0430364 8.51281 -8.35166 -21.4865
155 1 Ar 13.2404 5.09152 1.40188 1.54502 -0.368373 -0.77614 -18.3146 7.67773 -6.15869
151 1 Ar 13.5122 6.13894 1.46834 -0.348566 0.199145 0.199602 9.91196 -11.3956 1.61208
596 1 Ar 13.1048 3.47087 1.74681 0.0891134 0.225643 0.939984 16.806 30.208 5.69908
156 1 Ar 12.6837 5.72108 0.611729 -0.0145462 -1.11604 0.0655037 4.85279 1.49603 10.4001
150 1 Ar 14.8273 5.27144 0.867923 -0.951276 0.559259 0.531042 20.6441 -4.7837 -0.360482
559 1 Ar 14.844 6.24362 1.34002 0.0306934 1.04816 -1.05803 -21.0195 -0.997893 -11.6902
605 1 Ar 16.3315 5.86965 1.01886 2.31363 0.56631 -0.134304 -8.72968 1.33092 2.78513
159 1 Ar 15.3742 6.06955 0.32402 0.620474 0.123323 0.0719553 12.0605 8.13371 21.4634
3682 1 Ar 14.7193 4.66677 16.6946 0.619575 1.46853 1.58426 -3.1926 -14.5508 0.993548
3717 1 Ar 15.6542 5.13457 16.68 0.320578 0.0801975 -0.323209 0.927836 9.627 -8.08982
123 1 Ar 0.495744 5.8146 0.766268 -0.450084 -0.0439269 1.03673 37.4059 28.6189 -17.9534
126 1 Ar 0.617305 6.54345 16.3541 0.32886 0.123596 -0.326364 10.84 10.9422 29.618
599 1 Ar 16.7567 6.74033 0.550663 -0.72506 0.185746 1.02187 0.773651 -7.02556 -0.541019
173 1 Ar 1.66542 6.39605 1.69777 1.21702 -0.0838714 0.266504 -5.85964 10.8987 2.32249
211 1 Ar 2.60652 6.67816 0.935844 0.875362 -0.259631 0.62968 -12.6057 -0.687681 6.0012
963 1 Ar 1.87227 7.58231 1.1924 -0.869314 -0.560309 -1.00397 0.220069 2.36803 -17.6112
653 1 Ar 3.19714 5.90388 0.435121 0.137098 -1.90239 -0.0776579 -8.09043 4.55968 7.91467
569 1 Ar 5.25687 7.9406 1.33356 0.686538 0.879425 -0.10479 6.2658 -14.1252 -30.5926
220 1 Ar 6.5226 7.2444 0.966711 -0.948412 1.49393 1.68816 0.80967 -9.40129 -1.26958
620 1 Ar 5.32924 6.81002 0.273738 -0.514981 0.434238 -1.04109 2.74317 -2.24628 -2.32786
3817 1 Ar 5.17472 6.80003 1.40204 1.01081 1.79588 -0.399828 7.65961 -16.6219 -23.4868
3779 1 Ar 6.1997 6.32507 0.0169222 1.0388 -1.7445 -0.036854 18.7884 0.0953232 11.4866
3859 1 Ar 7.66544 6.99526 1.05634 1.30231 -0.114444 -0.200892 3.81588 -7.69912 -3.58644
215 1 Ar 7.43717 6.18559 0.337192 -1.63562 -0.895578 0.533696 -14.7806 -13.0902 4.64743
183 1 Ar 8.30666 6.72099 0.13497 1.03 -0.449473 -0.359947 6.7451 -0.246281 13.5343
623 1 Ar 8.64177 7.46878 0.896884 0.00699103 0.153742 0.248666 -18.6816 9.52181 39.0115
3836 1 Ar 10.9962 7.0777 0.266823 -0.0152403 -0.0172168 -1.45864 5.55065 -5.51809 6.09191
3384 1 Ar 9.18496 7.27798 0.0897558 1.02482 2.20548 -0.84776 40.8477 -21.9307 -23.747
539 1 Ar 10.7476 6.73433 1.33768 -0.588213 -0.576527 -0.624545 -9.42966 7.31517 -6.2745
3785 1 Ar 9.74377 7.39892 1.00531 0.210947 -0.630312 0.909818 8.51584 3.29028 -35.367
950 1 Ar 11.4772 5.97791 0.785232 0.291757 -0.115748 0.122614 22.6205 14.3046 -6.08763
627 1 Ar 11.7964 7.09822 1.14887 -1.34482 -1.25443 -1.27019 -30.1255 10.0716 6.71718
187 1 Ar 10.9658 7.50312 16.0599 0.39423 -0.153448 -1.78945 1.7225 -1.27993 0.683185
989 1 Ar 13.4239 6.99562 0.202071 0.653328 1.04365 1.11562 -4.4718 5.16624 1.05294
196 1 Ar 14.075 7.0243 1.21098 -0.49928 -0.0554853 -0.566161 -16.7655 -17.5825 17.9291
713 1 Ar 12.3411 7.01662 0.271287 0.284889 0.594983 1.65932 1.26511 0.0451025 -12.5851
988 1 Ar 13.8983 7.83894 0.647298 -0.350388 0.228945 1.5516 10.5745 19.4193 -20.7895
1074 1 Ar 12.7283 6.76179 1.2691 1.2415 0.226544 -1.14447 12.7041 0.418684 -0.987627
993 1 Ar 14.8663 6.96367 0.56377 -0.0199046 -1.02905 0.574224 8.34949 17.6218 -12.4344
3790 1 Ar 15.8511 7.216 0.228436 -0.189746 1.38807 -1.07777 -4.82815 2.27066 -1.12695
922 1 Ar 0.496386 8.63772 16.355 -0.462599 1.39373 0.498866 5.40243 5.99119 9.32002
201 1 Ar 1.57037 6.78338 0.220057 0.980862 0.363288 -0.778274 -0.803036 0.463195 -0.672689
608 1 Ar 16.5732 8.63722 0.792589 0.409785 1.06984 -0.155406 -33.3721 -7.24628 4.57944
238 1 Ar 1.29113 8.01015 0.0460979 0.158433 1.07096 -0.183836 10.5568 1.53269 2.81094
717 1 Ar 2.33711 9.84485 0.503543 -0.277842 0.305037 -0.0814857 -8.29226 2.03122 6.08454
607 1 Ar 3.03971 7.69395 1.08013 0.431963 -0.650536 -1.52524 -8.52214 1.38315 0.888356
1082 1 Ar 2.21815 8.54659 1.75307 0.904636 -0.746378 -0.956581 3.15887 -10.1787 -7.33793
647 1 Ar 3.2718 8.57895 0.528963 0.00952554 -0.246413 -1.45648 10.2986 38.1174 20.4111
3774 1 Ar 3.54427 6.92332 0.533414 1.31807 0.791941 0.0237694 12.8723 -8.33096 -1.16743
652 1 Ar 5.17081 8.16548 0.0860626 1.37428 0.0490761 -0.576447 30.217 -2.33417 -10.4091
3016 1 Ar 5.74868 8.94798 1.34048 -0.705991 0.415622 0.621917 8.55085 -3.83004 4.07368
621 1 Ar 4.57754 7.4768 0.468972 0.623095 1.0772 -0.488939 -21.3521 -10.9201 -8.34071
628 1 Ar 7.11574 8.10322 16.3824 0.373129 -0.264218 -0.0602423 -3.7858 0.412179 -9.00837
660 1 Ar 6.61516 8.24255 0.625763 1.00834 -0.369687 -1.49215 1.03564 7.76751 -1.24749
3819 1 Ar 6.1639 7.59278 16.7404 -0.760314 0.532343 -0.66683 -2.72443 -28.258 -4.26858
141 1 Ar 7.84321 7.90604 1.61191 -0.676057 1.67953 1.77806 11.7466 2.70896 4.02213
224 1 Ar 8.31039 7.72223 16.7586 0.907577 -0.583722 -1.03563 -26.6188 35.7166 -22.8163
3739 1 Ar 8.41479 8.74255 1.15191 0.239412 1.31754 0.516539 1.29806 4.4389 7.60971
3821 1 Ar 8.87018 7.72186 15.7714 -0.24735 2.05789 0.00468477 -27.9818 -9.18188 -24.9634
613 1 Ar 7.70379 8.52715 0.392871 0.43396 -0.594037 -0.903479 -3.90899 0.7698 -1.20963
186 1 Ar 10.8043 8.07044 0.771974 1.73267 0.190976 0.404821 -6.10297 -16.1525 30.4445
3781 1 Ar 9.21568 8.30025 0.613431 0.043719 0.544781 0.668238 4.68581 -17.2468 5.00888
586 1 Ar 10.2533 9.97934 0.815443 -0.626786 -0.152821 0.209123 -9.89681 -14.9694 13.2697
152 1 Ar 11.8615 7.9922 0.389233 -0.357207 1.84126 -0.584901 -2.6482 -0.0976005 -4.32338
1354 1 Ar 12.889 7.85186 0.944129 -0.180988 -0.767126 -0.696097 -7.86443 0.595924 2.4158
594 1 Ar 13.7568 8.95094 0.694695 -0.439744 0.218128 -0.205617 -1.89292 -1.39771 12.2436
193 1 Ar 14.7995 8.71435 1.31707 0.697438 1.30149 -0.158366 -3.30226 -3.19353 -3.31284
3435 1 Ar 14.405 9.14158 16.6848 0.0634884 0.804829 1.26827 -9.24957 -41.1387 -0.929231
603 1 Ar 16.2063 8.49829 16.5615 1.17822 -0.843519 0.744987 8.72533 -8.98205 -6.75226
1117 1 Ar 15.4694 8.57271 2.14719 0.02378 -0.796914 -0.983569 0.663786 5.17478 -27.8297
3395 1 Ar 14.8375 7.99435 16.7992 -1.22049 0.889955 0.633872 16.0614 -0.7194 22.6634
274 1 Ar 15.535 8.89441 0.456755 1.43826 1.39331 -0.964304 -28.6578 -30.7315 -37.6058
3803 1 Ar 16.7496 9.4783 16.755 0.193817 0.44726 -0.546411 -11.3029 -26.4723 11.2348
634 1 Ar 0.646842 10.2715 1.57856 -0.729943 0.791399 0.38924 -0.267411 9.00528 7.87237
236 1 Ar 16.6674 10.114 0.897717 0.579012 0.211444 0.840984 -13.3223 -15.476 -5.99981
206 1 Ar 1.32576 9.56644 1.16497 0.240453 -0.903302 0.899312 6.73754 -10.7699 2.35935
1012 1 Ar 1.30435 11.2281 1.82847 0.772954 0.295399 -1.63797 -19.1569 2.96944 7.24995
645 1 Ar 0.804143 9.96218 0.297269 1.75867 -0.352166 -0.847935 3.41276 12.01 11.5243
277 1 Ar 0.705313 8.82786 0.56494 -0.519734 -0.565549 0.611886 30.6322 12.1083 -2.12111
247 1 Ar 2.443 10.9567 0.654151 0.916551 -0.913658 -1.06961 -3.33089 -6.24658 -13.004
217 1 Ar 3.27447 10.2712 0.63451 0.697797 -1.22641 0.0269298 12.1419 13.45 13.9648
287 1 Ar 1.72632 10.2848 1.95151 -0.130624 1.18876 0.899394 5.72859 -11.4113 5.06318
1414 1 Ar 3.76966 9.70924 1.68558 -0.135401 -0.119883 -0.114008 5.66056 12.5572 -16.7202
1051 1 Ar 3.71795 11.0323 1.41707 0.198933 0.671571 0.309304 -6.63523 -0.909333 -1.06482
696 1 Ar 4.62809 9.78389 16.4247 -0.0143293 -0.491173 -0.577408 -3.26506 -3.79007 -25.7614
297 1 Ar 4.21853 9.6948 0.555625 0.476284 -0.744291 -1.02052 -22.786 -24.2824 24.1528
655 1 Ar 4.90369 10.404 0.407062 -0.63066 0.344491 0.678435 59.6615 13.7367 10.1343
1417 1 Ar 5.08115 12.0735 1.03463 1.52455 -0.32779 0.201338 -11.8912 22.9086 -4.6854
294 1 Ar 5.73684 9.87506 16.5036 0.31682 0.365271 0.447605 1.25164 -3.73863 4.35223
304 1 Ar 5.52671 9.99552 1.17271 -0.411109 -0.395905 0.764073 1.93044 -3.91474 4.53465
259 1 Ar 5.50522 11.194 1.14521 -1.74821 0.0637154 -0.684754 13.8198 -35.1016 0.432165
1422 1 Ar 7.09946 10.2383 1.05878 -0.836962 -0.48118 0.743581 11.2867 -4.54607 7.14279
665 1 Ar 7.11771 10.0439 16.7563 -1.49409 0.427025 1.02113 10.394 13.2768 -1.81381
3784 1 Ar 7.91748 9.5012 1.83298 -0.962566 -0.406082 2.02613 -17.7186 -39.4757 -34.2341
3867 1 Ar 8.25838 10.092 0.65894 -1.43746 -0.412931 -0.158219 8.48665 -38.1174 -11.7782
260 1 Ar 7.91397 10.9735 0.866032 0.643861 -1.55609 1.35535 -16.7321 39.0158 10.8163
3823 1 Ar 8.49795 9.75169 16.3373 -0.35264 -1.95832 -1.17215 -7.10487 9.46927 -4.44437
253 1 Ar 9.02336 9.73294 1.30197 -0.537087 -0.396682 -0.419265 -19.717 -23.9118 -7.50841
3787 1 Ar 9.8137 9.72143 1.93857 -0.448405 -0.165072 -0.572035 24.2113 -1.14174 -3.30135
668 1 Ar 9.38315 10.6519 1.2051 -2.01258 0.0933363 1.43331 8.68929 23.8335 8.83072
1458 1 Ar 9.25582 11.1011 2.40038 -0.121252 0.647506 0.522888 1.54645 -38.0256 -31.0968
669 1 Ar 11.9331 9.46135 1.53939 0.707116 0.0803403 0.166036 4.34376 11.2672 2.36442
582 1 Ar 11.1731 9.09662 0.865095 -0.477458 -1.68885 0.408473 -3.67008 -1.38 -4.2236
227 1 Ar 10.499 10.7118 0.153616 -0.834609 0.517798 -0.965736 0.0285314 8.12532 -20.6888
195 1 Ar 13.1602 9.20149 16.6387 0.717173 0.0441969 -1.50719 10.8445 5.14174 -12.2952
353 1 Ar 12.628 9.03291 0.660356 1.16064 0.564876 0.461252 -11.2949 -12.4304 23.3297
271 1 Ar 12.8213 10.8361 16.7528 1.00762 -1.81152 0.732259 -5.39997 2.73438 -13.1111
996 1 Ar 13.9376 10.2774 1.10071 0.281891 0.894489 -0.594263 14.7259 -0.593169 9.24392
230 1 Ar 13.6338 10.1064 0.139733 -0.271382 0.420368 -0.436598 -1.76926 -0.551366 -2.97767
194 1 Ar 14.6983 10.0606 16.6072 -0.424808 -1.02692 0.195803 17.1621 17.8383 -29.1043
1073 1 Ar 15.5872 10.503 0.920596 0.892424 -0.626665 -0.1563 -13.5299 2.75234 13.3651
671 1 Ar 15.8455 10.0563 0.0257285 -0.106762 0.102237 -1.4407 -12.6681 -10.0456 -6.84104
315 1 Ar 15.8797 9.46154 1.13895 0.140071 0.189646 0.552777 14.4837 26.1585 46.6781
241 1 Ar 0.298906 11.0104 0.739925 0.00475223 0.197963 -0.979871 16.5316 15.1551 4.71208
648 1 Ar 1.44009 10.628 0.909971 0.21858 0.0518337 0.655863 -1.44532 4.90921 9.37594
245 1 Ar 1.82286 11.6418 0.154834 -0.681295 0.475517 -0.434722 -7.90877 15.3997 2.22941
689 1 Ar 3.35948 11.4149 0.397111 0.678724 1.49432 0.0359916 9.43385 1.61566 1.4974
3892 1 Ar 2.87493 12.4304 0.854257 -1.63427 -1.5734 -1.30085 7.49718 -16.2818 -2.22584
1089 1 Ar 4.45337 11.3083 0.649717 0.788308 1.20524 0.302752 -15.9679 3.75863 8.45483
250 1 Ar 5.00589 12.4999 15.4698 -0.991034 -1.53514 1.23013 1.79457 15.2961 -5.60305
690 1 Ar 4.0832 12.239 0.111529 -0.847253 -0.240066 1.5452 -1.81559 6.44286 14.2775
3856 1 Ar 3.09851 12.2388 16.4963 -0.544428 -0.532425 0.507817 -2.82753 -8.79378 9.87625
691 1 Ar 5.69994 12.7373 0.254027 0.293684 -1.41526 0.728851 6.05684 -19.6559 29.0629
3895 1 Ar 6.28968 11.8437 0.441875 -0.945125 -1.0262 -1.09712 -7.72453 2.60961 -12.4805
302 1 Ar 7.91199 12.0015 0.130532 -1.64516 -0.100959 0.11695 7.7468 0.815719 6.22875
300 1 Ar 7.13241 11.2757 16.7574 -0.703743 -0.505396 -0.0436245 -2.06993 -10.4348 6.23381
656 1 Ar 6.77522 11.2835 1.15159 0.223045 0.0640504 -0.245159 3.26396 -6.67169 9.51821
232 1 Ar 8.60484 11.5517 1.49796 1.74426 -0.60022 0.271187 3.11085 -14.0345 0.301286
3427 1 Ar 9.00744 11.4142 0.475465 1.66229 0.0766883 1.22071 -2.69499 -12.1984 9.53238
3832 1 Ar 10.1078 11.7511 0.548026 0.0683143 0.0388032 1.00706 -1.33585 2.43053 -14.4389
1461 1 Ar 9.87856 11.5349 1.5154 0.454572 1.23294 -1.25451 -11.4748 0.333812 14.9373
626 1 Ar 11.3137 10.2027 0.870099 0.478328 0.460138 0.423344 0.398451 -15.2558 -6.11466
662 1 Ar 12.2259 11.8386 1.76887 -0.698387 0.794713 1.51671 6.67219 4.68789 -19.5349
3512 1 Ar 12.3274 11.9075 0.457302 0.491297 1.18436 -0.0950574 12.7468 -12.144 7.40866
3830 1 Ar 12.3206 9.96165 0.313035 2.28651 0.199298 -0.877359 -6.04913 4.92503 67.6698
351 1 Ar 13.1749 10.9719 0.901237 -0.506651 0.00547214 -0.995817 -2.10392 6.6655 15.929
3826 1 Ar 11.5861 10.6142 16.7252 -0.209689 -1.40171 0.428762 0.114815 -11.3108 0.492586
273 1 Ar 13.52 10.1947 15.8915 -1.35896 -0.63611 -1.82271 -16.6781 -10.5578 11.2723
360 1 Ar 14.4533 11.8342 0.00967515 -0.991845 0.875741 -0.227138 -2.43066 0.767705 6.04786
321 1 Ar 16.6163 12.3615 1.07475 0.446383 -0.0416126 2.3801 -0.805141 -1.88293 7.36373
687 1 Ar 16.1417 11.3232 1.42789 0.972978 0.320454 0.0128388 2.15859 -1.61058 -2.85085
288 1 Ar 0.862502 12.8878 1.19615 -1.38522 0.634672 0.966684 -7.42517 15.132 23.5723
368 1 Ar 0.371687 13.4408 16.5005 0.102702 -2.64879 -0.372928 1.86426 16.351 2.03726
686 1 Ar 2.42501 13.3808 0.744773 0.0781871 -0.536906 0.416479 18.9536 23.2026 -16.9793
646 1 Ar 2.17311 11.6083 1.43635 -0.363211 0.729553 0.103536 0.595075 3.78045 -10.6317
677 1 Ar 1.84726 12.6265 0.992025 -0.239692 -0.453144 -1.12944 -19.954 -30.4463 3.7585
762 1 Ar 4.0712 14.1997 1.49644 0.425439 -0.0952801 1.12425 -3.96459 8.95666 1.94491
730 1 Ar 4.89462 12.7686 16.4644 -0.141294 -0.625628 -0.559053 -28.9 -6.05262 1.9551
729 1 Ar 3.60685 13.1853 0.653239 -0.0762921 -0.41054 1.45439 3.67514 3.32382 1.62975
650 1 Ar 6.02498 12.5953 1.21553 -0.263665 -0.781734 0.0538603 6.70123 1.22624 18.3547
700 1 Ar 6.39217 14.2965 2.33883 0.856672 -0.56749 0.449088 -4.27689 -5.38407 2.38053
1094 1 Ar 6.47825 13.4541 0.231092 1.03443 1.89307 -0.281758 7.93197 4.57996 10.1533
3900 1 Ar 7.59366 11.9768 1.18452 -0.605804 0.638331 -0.514918 4.39229 3.06509 1.10145
339 1 Ar 6.73626 13.4594 1.72851 -0.456815 -1.49087 -0.407908 13.3832 -20.4212 -19.1399
296 1 Ar 7.44403 12.9444 0.805353 -0.762911 0.358463 0.0567788 -3.67177 9.50073 1.44651
3056 1 Ar 7.15916 12.7386 16.5828 -0.157928 -0.459194 1.80851 6.41597 -15.6011 12.0027
295 1 Ar 7.60176 14.2379 2.27957 -0.477373 0.270125 1.81215 -4.72006 -7.20326 -2.51057
1538 1 Ar 8.51759 13.0175 1.02057 1.70287 -0.0568418 0.119684 -8.71356 7.85123 -9.65491
301 1 Ar 9.37527 13.1299 0.339207 -0.4022 -0.315165 0.492856 6.76593 4.68223 3.69768
3937 1 Ar 10.4658 12.8595 0.950266 -0.335045 0.548326 1.03844 5.18183 -11.3932 -12.0593
3943 1 Ar 10.89 13.6147 1.75767 -0.0391116 -0.430278 -0.651531 5.43589 -6.38823 0.706778
387 1 Ar 11.3518 11.5764 0.152388 -0.964816 -0.947105 0.443984 -8.74533 11.1369 -2.4027
746 1 Ar 10.4163 13.4228 16.7219 -0.761418 -1.64484 -1.03648 0.678836 -3.48024 25.542
1185 1 Ar 11.3726 12.184 1.02289 -2.15875 0.175785 -0.34597 -1.10887 0.666241 9.92779
3912 1 Ar 13.4927 13.8681 1.10695 -2.12648 0.125091 1.50742 3.28917 -14.0541 13.2978
3591 1 Ar 13.4413 11.9996 0.608109 0.805677 -0.784361 1.1082 5.29658 -1.30528 4.66302
316 1 Ar 12.8947 12.9229 1.02709 -0.498536 1.6132 -1.09336 -2.62244 -4.70598 -4.07056
3556 1 Ar 11.9294 12.8586 0.354061 -0.225316 -0.186804 0.832909 -1.57154 14.8133 4.43566
670 1 Ar 15.4725 12.8928 0.897649 -2.15531 -0.380387 -0.612136 -4.46379 -3.94202 -5.07543
3924 1 Ar 14.6298 13.4796 1.38752 -0.73344 -1.53872 0.678225 -3.36082 6.27972 -6.16304
726 1 Ar 16.4733 13.6 0.547252 -0.303217 0.0751151 1.16647 1.98893 -3.03682 -0.91102
318 1 Ar 15.4667 11.8013 16.4818 0.06221 0.204104 -0.28176 10.4691 17.2417 16.1226
244 1 Ar 16.1489 13.3075 1.58134 0.063856 0.368096 -0.52138 2.94678 -3.9938 -4.10373
3926 1 Ar 15.6279 14.114 1.14742 0.0530801 -1.37011 -0.340147 -7.90194 4.7408 1.01331
758 1 Ar 0.386188 14.7583 0.266032 1.23347 0.240071 1.54307 -50.3826 12.0734 2.88977
359 1 Ar 1.19832 14.4108 1.69061 -0.298742 0.146794 0.306521 3.76326 35.1875 2.09371
3925 1 Ar 3.23837 14.7853 1.30734 0.424649 -1.03024 0.679321 -10.6384 -7.88293 -10.9775
1171 1 Ar 1.06929 13.7022 0.570118 0.171174 0.48114 -0.24186 -2.09896 -14.6868 -5.47865
367 1 Ar 2.17809 14.3544 1.03308 -0.51318 -1.92988 -1.42697 9.51468 9.51761 8.23007
376 1 Ar 4.60348 14.039 0.631744 -0.980381 0.0792601 1.35113 3.88899 -5.45737 6.0515
7 1 Ar 4.16953 15.2143 1.63085 -1.53555 0.619452 -0.749941 -0.573148 5.58965 -0.274058
770 1 Ar 4.87712 13.9481 2.17294 1.29993 -0.289881 0.422833 14.3601 -13.2706 0.285686
736 1 Ar 5.66546 13.672 1.37692 -0.0209645 0.566024 1.43502 13.195 10.6504 4.93387
694 1 Ar 6.97052 14.3343 1.40024 -0.537912 1.6118 1.87043 11.2067 44.8468 -24.1575
3940 1 Ar 7.25636 15.7278 0.735542 -2.73626 0.258868 -0.514701 -4.23025 -8.28229 -1.6628
370 1 Ar 6.48877 15.2459 1.87715 0.664798 -1.10059 1.14104 -13.9065 -4.62391 -16.1974
3981 1 Ar 7.71855 13.9977 0.48499 0.173335 -1.62583 -1.45032 -6.68625 -16.8297 9.21151
337 1 Ar 8.56619 14.7365 1.65906 -0.337002 -1.67965 0.493389 -48.7394 -19.0536 -25.6307
3979 1 Ar 8.05638 14.9201 0.727825 -0.415382 0.444691 -0.186422 1.92615 21.3472 3.39597
308 1 Ar 9.15606 14.8992 0.0870075 -0.245478 -1.61445 0.744598 0.231481 3.9734 5.69235
745 1 Ar 9.46757 14.8572 1.18649 -0.601918 0.372522 -0.34479 6.30752 15.5641 -24.7307
749 1 Ar 12.3191 13.8631 0.673507 1.00959 1.54421 -0.177314 14.0404 8.3899 -22.0969
346 1 Ar 11.182 13.6651 0.732039 0.870112 -2.06339 0.946892 2.41335 1.05996 -8.11818
352 1 Ar 11.0498 14.6903 0.238703 1.10766 0.489669 -0.659085 8.42572 -12.1554 -1.62993
433 1 Ar 12.6858 14.8693 1.29129 0.344797 1.41144 0.812416 -7.37573 -18.0924 -12.0989
3955 1 Ar 12.1902 14.82 0.287868 -0.272638 1.48741 0.552192 -5.5854 -33.8864 23.4036
3950 1 Ar 15.3784 15.297 1.16184 0.60859 0.756038 0.0491065 -11.1985 9.00445 0.806749
39 1 Ar 14.6382 14.5805 1.61947 0.617461 0.334338 -1.03502 7.01437 7.36552 -11.591
357 1 Ar 15.0846 12.8911 16.6432 -0.997173 1.1338 0.255991 16.959 -0.596597 -4.24328
722 1 Ar 15.2332 15.062 0.151374 -0.692226 0.284486 0.427829 -27.3991 -7.68402 -15.9966
314 1 Ar 14.4935 14.1362 0.389946 -0.183514 -0.655294 0.25368 -2.5787 -0.294294 11.9324
317 1 Ar 0.299665 13.9465 1.38095 -0.682782 0.292582 -0.0933963 -5.09876 -4.04713 -2.1594
724 1 Ar 16.1422 14.8074 0.483412 -0.285636 -0.203566 -0.243574 15.089 -11.747 7.71524
1083 1 Ar 0.214886 15.1481 1.3388 0.366431 0.909196 0.567587 52.4194 14.7757 -35.9169
365 1 Ar 1.26182 14.6797 0.658167 0.119737 0.40284 1.80616 36.9307 19.9017 9.59307
325 1 Ar 16.6429 15.7304 0.588936 -1.72052 -0.268253 -0.821547 -2.10948 15.6924 26.287
879 1 Ar 0.933143 15.7361 0.671801 -2.16992 0.909693 0.70738 14.6086 -14.048 18.5974
49 1 Ar 3.0295 16.1413 0.653039 -0.281099 -0.338957 -1.27814 0.692137 6.07157 4.86955
399 1 Ar 1.95967 15.4406 0.983516 -0.719702 -0.180959 -1.69843 -19.7854 14.1649 -7.06056
3964 1 Ar 2.1149 16.0354 0.156945 0.729503 -1.4153 -0.394569 -10.8409 11.6025 -18.2344
459 1 Ar 5.71172 15.8276 1.23006 0.91509 2.17072 -1.7588 18.4652 -2.27967 8.63673
3971 1 Ar 4.98367 15.2167 0.752468 -0.44774 0.529705 1.40389 1.31379 -4.2468 -3.52966
3613 1 Ar 4.07674 15.8632 0.814436 0.107149 -1.0288 0.0151494 -5.49135 7.8979 -3.66398
374 1 Ar 5.26199 16.7506 1.83823 -0.424243 -0.477193 -0.240519 7.41356 0.718364 3.24556
380 1 Ar 5.00537 16.3803 0.733607 0.849381 -0.862805 1.46884 -26.1913 -1.84867 -2.42514
336 1 Ar 6.08957 14.8275 0.785353 -0.513529 0.520772 -0.406976 0.0830937 1.06037 -1.14626
340 1 Ar 5.7098 15.1378 16.5637 -1.08289 -1.05761 0.176718 2.28771 -7.39505 -1.88938