ITEM: TIMESTEP
9900
ITEM: NUMBER OF ATOMS
4000
ITEM: BOX BOUNDS pp pp pp
0.0000000000000000e+00 1.6795961913825074e+01
0.0000000000000000e+00 1.6795961913825074e+01
0.0000000000000000e+00 1.6795961913825074e+01
ITEM: ATOMS id type element x y z vx vy vz fx fy fz
798 1 Ar 0.650035 0.333569 0.183411 -0.141543 0.636541 1.55278 4.31395 19.5317 2.35917
45 1 Ar 1.47468 0.0662013 0.847552 -0.409725 1.25381 -1.04722 -6.63388 -3.25912 2.82368
12 1 Ar 1.23427 1.1899 0.599871 -0.600715 0.07921 0.551509 -3.31381 1.12948 1.71397
46 1 Ar 4.08181 16.734 0.19755 -0.134067 -1.32847 -0.413328 -1.86458 12.6765 -21.2599
442 1 Ar 3.50774 0.82844 16.6766 1.74887 -0.116329 -0.0061319 1.50688 3.72067 -0.0257513
47 1 Ar 3.16981 1.45951 0.684628 -0.792128 0.484663 0.300357 -13.2106 -1.00689 1.764
401 1 Ar 2.87489 0.0220639 1.7353 1.16612 0.474482 0.604373 -11.4984 13.2161 -22.8969
91 1 Ar 4.31763 0.954902 2.3798 -0.455717 -0.526348 -0.554127 4.43469 7.32479 -10.1183
489 1 Ar 4.10915 1.14237 1.02495 0.95544 -0.846867 1.76901 11.4015 -16.236 -9.78298
500 1 Ar 4.58683 2.03051 1.14593 1.6767 -0.306481 0.524593 6.09594 25.6926 15.1153
761 1 Ar 4.03611 0.146114 1.70084 -0.348021 -0.0687661 1.61157 32.6535 -39.1465 -1.14446
16 1 Ar 5.19381 16.5747 16.4606 2.5128 0.512234 -0.454068 -5.2733 20.106 7.84872
457 1 Ar 4.85894 0.797971 0.19491 0.306329 0.516232 1.29618 -23.3004 -8.89113 -1.64842
334 1 Ar 7.57745 0.38252 0.527734 -0.419119 0.752271 -1.16547 8.64048 3.05315 18.181
780 1 Ar 7.1576 1.22681 -0.0197307 -0.0335573 -1.25637 -1.20681 -5.00251 5.80252 -7.50841
15 1 Ar 5.42452 2.7045 0.127218 0.278891 -0.271138 -0.156525 -20.9291 -24.3585 -11.0993
774 1 Ar 5.36569 1.57969 0.647385 -0.403746 0.241829 0.659233 23.8203 -1.99136 14.1198
383 1 Ar 9.0033 16.5493 16.135 -0.154069 0.447461 1.84386 15.0429 9.03056 -9.57498
58 1 Ar 8.65198 0.835792 0.819983 -1.17731 -0.24427 0.9793 -3.07058 4.07074 -15.9771
3944 1 Ar 8.44017 0.0559859 0.0930389 -0.82802 -1.11043 -0.531323 7.71287 -7.25575 29.506
3627 1 Ar 9.26695 0.818144 16.3632 1.23954 0.912284 -0.461873 -0.252667 -1.70141 2.53638
505 1 Ar 10.2858 1.24959 16.5396 -1.29511 -0.124445 0.580109 -1.44356 -3.25636 1.21571
21 1 Ar 9.74868 0.729978 0.628207 -0.494508 -0.852076 -0.273062 -10.2078 -6.56444 -13.3521
419 1 Ar 9.89897 16.6254 16.6768 -1.46228 -0.054439 0.18026 7.44503 4.10975 3.46171
474 1 Ar 10.807 0.558659 0.518693 0.981173 1.05474 1.24724 -4.14064 28.6604 1.06491
29 1 Ar 11.7969 1.09212 0.715506 1.03518 -0.420417 0.345975 -9.69923 -26.6064 -20.2273
388 1 Ar 13.0616 0.666507 0.772913 0.785427 0.658712 0.41935 -1.35087 10.052 -11.6408
3991 1 Ar 12.4376 0.774527 16.7294 1.58436 0.4019 -0.721215 -20.2704 -2.06247 -3.75964
429 1 Ar 14.0619 1.10452 1.01307 -0.794322 -1.49295 0.321213 -16.6549 27.3975 -37.1734
33 1 Ar 14.8497 0.851536 0.237079 0.335897 0.138864 0.31577 4.30224 -13.5637 -8.00824
795 1 Ar 14.4022 16.5143 0.848981 0.429454 1.01138 1.31612 6.06678 -6.1419 -0.443326
35 1 Ar 14.8418 1.83631 1.29479 -1.06685 0.533239 -0.416208 -4.72362 -9.46422 2.77176
83 1 Ar 15.0663 1.83335 0.109325 0.310783 -2.11431 0.490101 1.54968 16.6212 20.4126
79 1 Ar 15.4496 16.6997 0.616784 -0.474492 1.42805 0.931335 6.17511 -6.2683 -6.5103
438 1 Ar 15.7092 1.22832 1.02411 -0.872976 1.30226 -0.797835 1.66887 3.45092 5.87452
764 1 Ar -0.00360777 1.12162 0.830143 -1.42886 0.329794 0.515235 5.23498 -1.33897 15.3778
434 1 Ar 16.042 0.927532 0.0706775 -0.0224574 -0.223195 -0.111778 -13.9406 -8.05601 13.3659
479 1 Ar 1.59974 2.37855 0.461908 -0.254725 -1.21255 0.154448 -6.31808 -18.7799 -1.63452
3688 1 Ar 0.159713 1.46919 16.6725 -0.739069 0.69532 0.334348 16.4361 17.1601 -0.0900577
487 1 Ar 2.56427 2.65834 0.0874675 -0.453497 0.110172 0.1163 33.7691 -30.5588 -8.01422
10 1 Ar 1.84855 2.81002 16.101 -0.239897 0.738068 0.565031 14.1795 -8.24106 3.89429
1170 1 Ar 3.15935 1.85144 16.3783 -0.0083279 -0.170013 1.79981 -3.01097 -6.87196 28.1225
413 1 Ar 3.65022 2.41457 0.672368 -1.6058 0.0903743 0.212005 -2.93421 2.68744 -2.81541
1134 1 Ar 2.7079 3.20484 0.96761 0.0883495 1.04436 -2.24603 5.42886 2.85908 3.66802
3689 1 Ar 3.83826 3.08072 1.54326 -1.33393 -1.42366 1.33648 -12.5382 -10.1844 1.75637
133 1 Ar 5.74048 2.81392 1.10062 0.068051 -0.742959 -0.502629 7.24997 5.08201 6.41306
414 1 Ar 4.59435 1.95576 0.0981192 -1.07459 -0.390553 -0.63608 -18.0066 8.5834 -5.7636
95 1 Ar 6.57671 2.10961 1.26697 -0.18057 1.08069 1.63131 4.30277 -0.598689 -2.01128
3661 1 Ar 7.47726 1.57384 0.936912 -0.202227 -1.11033 0.281016 14.0636 5.7575 -0.285771
379 1 Ar 8.38944 2.24443 0.723553 -0.0594273 1.99694 0.464133 1.06651 5.26837 13.7852
64 1 Ar 7.69099 2.45867 1.65239 0.291865 0.749704 -0.368608 2.92741 6.06951 -14.7962
3695 1 Ar 7.14833 3.21683 1.06613 0.779343 1.04039 0.70648 17.4999 -8.92466 6.37656
3701 1 Ar 8.23335 1.47262 0.0466166 1.11205 0.70539 0.434126 -3.44543 -7.76077 -11.2564
97 1 Ar 9.13672 3.05755 1.01782 0.0481299 0.202084 -0.285078 0.031147 -1.69449 6.6538
912 1 Ar 10.7167 3.50285 0.911324 0.62381 -0.222375 -0.203261 8.49795 4.39985 1.82624
103 1 Ar 9.41396 1.95072 1.22398 0.275612 -0.119403 0.585218 1.51301 0.95483 -1.57215
31 1 Ar 10.7857 1.5744 0.803716 1.07754 1.29413 -0.300125 29.2979 21.9983 -28.4127
512 1 Ar 10.0394 2.82669 1.73047 -0.474775 0.503393 1.62383 -4.36165 -0.84228 5.8134
71 1 Ar 12.213 1.9762 0.128672 -0.659101 -0.195509 0.29052 26.861 -34.2232 2.28265
469 1 Ar 13.2901 1.86594 0.487493 -1.47428 -0.230308 -0.295198 0.60096 2.7535 2.55531
67 1 Ar 11.1301 2.7307 1.72262 -1.18102 1.03499 -0.393889 1.74472 2.08521 -2.89968
1194 1 Ar 13.1679 3.04897 0.603214 0.0214472 0.134421 -0.51338 4.32532 -8.94815 2.11284
3716 1 Ar 15.1959 2.69405 0.851009 1.17013 0.614181 0.795598 2.8611 12.8572 -7.66031
78 1 Ar 14.2445 2.65982 0.208922 0.294318 -0.904862 -0.187254 -12.1479 -19.3253 11.5514
441 1 Ar 16.1003 2.12131 0.508259 1.23902 -0.179301 0.990269 7.05719 2.84221 10.0947
36 1 Ar 15.821 3.11341 0.0669089 -0.672435 -0.44919 0.560395 0.376247 2.98842 8.33832
42 1 Ar 0.0355524 2.54279 16.2559 0.282787 -0.387587 -0.164788 -2.76514 -5.47034 32.9364
523 1 Ar 0.0746177 3.05843 0.577158 1.18793 -0.155885 -0.218446 -3.22841 -7.91158 -2.90181
48 1 Ar 0.849129 4.02691 0.34084 0.081013 0.390146 0.400463 7.93537 -0.238369 1.26419
452 1 Ar 1.12967 2.8875 1.35605 -1.58371 -0.467367 0.534363 6.91057 0.809107 4.06509
92 1 Ar 3.52577 3.61607 0.137303 -0.226328 -1.39301 -0.338751 1.9115 -8.79785 11.4386
893 1 Ar 2.87798 3.92234 1.74006 -0.167484 0.171533 -0.928786 -3.61634 5.80555 10.1913
486 1 Ar 2.83421 4.2438 0.646166 -0.735841 -0.382788 0.317262 4.83652 12.3408 -1.84582
3731 1 Ar 3.7714 4.08071 1.18832 -0.853842 -0.25662 0.713304 -0.926813 1.30701 -12.4907
3692 1 Ar 5.83359 4.96191 1.4904 2.50997 -0.0500923 -0.526045 2.70531 -6.41592 -8.29257
130 1 Ar 5.58007 4.03283 1.95899 -0.556002 0.281341 0.0197125 -13.3136 4.02628 -5.3605
529 1 Ar 4.41348 3.19541 0.649219 -0.531734 0.590571 1.10518 9.02655 0.602913 -6.2397
132 1 Ar 4.34054 4.28753 0.160005 -0.124112 1.20772 -0.0594161 8.98432 -12.023 11.4936
898 1 Ar 6.92561 3.73535 3.04806 -0.436653 1.83838 1.36976 -18.1534 31.5856 21.3513
90 1 Ar 6.41373 3.92527 1.01171 -1.0129 -0.556748 0.552227 -19.0969 10.0871 5.32562
136 1 Ar 6.47385 2.9917 0.293647 1.03676 1.45176 -0.937983 -9.83408 3.13971 2.80715
977 1 Ar 6.88842 5.15781 1.92321 0.244149 -0.160303 0.409404 -32.9867 -29.2481 -6.13967
3659 1 Ar 6.63717 4.19424 2.19696 -2.08836 -0.0230849 -0.520087 -11.2406 12.5182 -20.9781
538 1 Ar 8.37843 4.95877 1.89592 0.588879 0.566544 -1.29334 -25.1483 -4.09927 -4.88203
974 1 Ar 7.59056 4.22853 1.38215 1.40139 0.00206358 -2.12487 -6.57241 -2.34216 6.04467
3741 1 Ar 8.89937 4.28629 1.23194 -1.0543 0.418391 0.470348 1.77308 -1.47809 -6.74118
135 1 Ar 9.80911 3.5798 0.318544 -0.675293 0.00208281 -1.61282 -2.0097 7.87982 -1.06282
494 1 Ar 9.65657 4.80347 0.441287 1.50611 -0.932028 0.728215 -13.9122 8.19129 -23.5387
432 1 Ar 10.3088 2.53541 0.740222 -1.58233 0.425088 -1.5033 -6.80783 -0.663111 -0.324436
73 1 Ar 12.3037 3.34985 1.31397 0.441833 -0.415984 -0.499409 -36.3992 -21.857 21.25
106 1 Ar 11.0754 4.76822 0.948506 0.22368 -0.0731585 1.31689 -11.4739 1.72382 -1.47975
506 1 Ar 10.6334 4.29946 16.7336 -0.036293 -1.46035 0.235446 -0.440719 8.67935 8.0432
66 1 Ar 11.6854 3.92826 0.417711 0.711079 -0.920627 -0.56562 -5.74504 -20.6689 -1.47857
189 1 Ar 11.2826 4.94708 2.18721 0.852729 1.02632 -0.247226 -2.02686 12.368 -17.7415
3747 1 Ar 12.7519 4.00243 0.765176 0.622003 0.439773 -1.20844 24.3295 27.7923 -47.1537
146 1 Ar 13.8307 4.21815 0.52303 -1.13785 0.10169 -0.0955997 -6.2205 -3.77414 -6.61128
475 1 Ar 14.4252 3.44064 1.07995 0.26491 1.13837 0.0174298 -8.67157 -1.92839 3.80664
3674 1 Ar 14.7303 3.5156 16.7971 0.427802 0.289836 0.334859 10.7561 19.887 -2.31343
3641 1 Ar 15.7791 4.27191 0.0337358 -0.712306 -0.281359 -0.409866 16.7605 1.44471 -14.9095
115 1 Ar 15.313 4.00561 0.882887 1.07762 -0.108425 -0.511629 -0.42337 -12.0938 25.758
3724 1 Ar 0.36325 3.60411 1.5314 1.08857 1.62538 0.160377 -4.97245 -32.1495 8.90487
3642 1 Ar 15.8341 4.99904 1.04558 0.573225 -0.75413 -1.28088 -7.06263 -7.03616 -14.0472
154 1 Ar 16.6155 4.03675 0.650323 -0.987408 -0.77759 -0.453894 -20.4822 4.62651 -8.6946
200 1 Ar 0.234479 4.56978 1.38544 1.29287 -0.227846 0.730751 -23.4553 41.0484 -3.79391
163 1 Ar 0.766329 4.56193 15.8516 0.072875 1.39348 -1.14001 5.18772 -0.223105 5.05514
571 1 Ar 1.56667 5.44423 0.166232 -0.158385 -0.0774568 0.320845 -12.6258 3.9714 0.486356
3292 1 Ar 16.7353 4.87313 16.6207 -0.233153 0.471588 0.00904376 -5.79121 -7.8388 -0.52397
157 1 Ar 2.14823 5.27991 1.0231 -0.469512 -1.77787 0.496048 0.963121 5.278 7.22432
522 1 Ar 4.08038 4.83651 1.88103 -0.291758 -0.193776 1.40403 7.4007 -4.70507 11.8882
3732 1 Ar 3.10588 5.09207 1.42396 0.216433 -0.59341 -0.953017 -13.8463 -14.6774 2.20678
174 1 Ar 4.89976 5.51638 1.47886 -1.16964 -0.555294 -0.487393 -18.3549 -4.47541 18.7518
129 1 Ar 4.8479 4.10095 1.14399 0.195775 0.978485 -1.51772 6.02011 6.87148 -5.72104
3296 1 Ar 5.08049 5.13203 0.51816 -0.890749 1.44624 -0.302415 -4.16651 -16.3107 0.901823
566 1 Ar 4.59705 6.23702 0.667588 1.36062 -0.782062 0.297056 1.29149 -9.50838 10.0285
3735 1 Ar 6.62906 5.24004 0.795917 1.18976 0.256018 1.56347 -11.7868 5.14587 1.54632
139 1 Ar 6.59027 6.27381 1.31071 -0.316666 1.1955 -0.426532 10.0301 -25.9357 19.5985
3740 1 Ar 7.64366 5.19572 0.968215 -0.561764 0.00971822 0.0287421 15.1686 8.0964 1.09408
219 1 Ar 8.20079 7.31564 2.05021 0.370764 -0.356862 0.567638 27.3518 -32.6781 5.37488
180 1 Ar 8.82123 5.37915 1.00282 -0.449764 0.666319 0.744583 1.77167 4.71864 -3.26249
534 1 Ar 8.45705 5.30229 16.6981 -0.0155893 0.98118 0.39425 1.64543 -6.18799 -1.72009
102 1 Ar 10.6297 5.62269 16.7457 -1.71374 0.813731 -0.590942 1.89718 0.0771494 -6.14247
94 1 Ar 11.6701 4.86438 -0.024571 0.0390867 0.372953 -1.11618 -10.4382 40.5029 39.2435
544 1 Ar 10.1307 6.58251 0.357264 0.351866 -0.709656 0.504833 5.65579 -17.7521 -5.89271
104 1 Ar 10.271 5.5923 0.923301 -0.990221 0.238603 -0.0648853 1.4077 -1.23323 10.9513
148 1 Ar 12.4809 5.85873 1.4644 -0.151842 0.240145 -0.982716 -3.37294 0.821578 -7.16796
191 1 Ar 12.0901 4.72837 0.95221 -0.00194766 0.729688 -1.37765 8.38465 34.0022 -2.60238
155 1 Ar 13.2718 4.99728 1.19973 0.485715 1.05419 -1.24154 -3.52473 -4.28736 -0.773438
151 1 Ar 13.5444 6.02851 1.55281 -0.476944 -1.20648 -0.900097 -2.64448 -12.2889 -6.87318
596 1 Ar 13.2615 3.73995 1.59243 0.499368 -0.0674102 -0.0607075 17.8422 -2.85856 19.5216
156 1 Ar 12.9985 5.78568 0.551764 0.364554 -0.297675 -0.433846 -0.485436 1.55206 12.248
150 1 Ar 14.4362 5.44232 1.07338 -0.95693 0.00119402 0.127137 3.03047 -24.3911 14.0769
559 1 Ar 14.4992 6.50517 1.61073 -0.793301 0.601516 0.504923 -6.30273 4.64215 2.45186
605 1 Ar 16.1754 6.05187 0.851887 0.721411 -1.03107 -1.23458 4.86759 -8.39501 7.41341
159 1 Ar 15.1061 6.18916 0.832802 0.126044 1.2365 0.920451 -1.85329 8.45737 -46.3705
3682 1 Ar 14.8055 4.66065 0.26513 -0.339963 -0.6866 0.591835 -10.5096 11.2493 -7.81313
3717 1 Ar 15.5961 5.30029 16.5339 -0.411631 0.535895 1.09143 23.4037 -21.4528 2.8361
123 1 Ar 0.980153 5.98964 0.925116 -1.85663 0.883438 0.109177 -11.5755 -6.18399 2.76952
126 1 Ar 0.908626 6.93886 16.4982 -1.55777 1.23806 -0.533846 -11.4181 -0.0711802 0.242348
599 1 Ar 0.0692291 6.82892 0.556252 1.40716 0.0673672 0.948944 7.9685 -14.4498 -14.6849
173 1 Ar 1.4613 6.69135 1.54489 0.618261 0.583365 -0.866123 9.08631 -9.15658 4.35071
211 1 Ar 2.64492 6.3667 1.22314 0.622775 -0.346692 0.386847 -16.677 -7.06954 -12.6439
963 1 Ar 2.04593 7.4919 1.04536 -0.174241 -0.0266941 0.221363 -19.9659 0.908386 -6.70501
653 1 Ar 3.32692 5.84218 0.551043 -0.125672 0.750001 0.115074 -2.36525 8.50256 -3.48965
569 1 Ar 5.25636 8.25139 0.824492 -0.392444 -1.15262 -0.371641 29.4833 -2.94916 28.5998
220 1 Ar 6.68362 7.15042 0.864549 0.337822 -1.3972 -0.458807 -5.19147 25.8111 -9.56696
620 1 Ar 5.31314 7.11902 16.6014 -1.2714 -0.348957 0.0326274 -7.86533 -26.6202 -0.432668
3817 1 Ar 5.54933 7.19371 0.825746 1.48851 0.543962 1.05314 0.884839 -1.14109 2.26787
3779 1 Ar 6.39609 6.26934 0.193613 -0.204888 -0.542178 0.65166 -4.43998 -2.11101 3.31118
3859 1 Ar 7.65735 6.68084 1.13515 -0.488764 0.134469 -0.381041 -3.78211 -26.8414 28.3701
215 1 Ar 7.65103 5.9649 0.131287 1.20186 -1.33449 0.449978 -22.7998 -6.59766 4.08496
183 1 Ar 8.4241 6.58757 16.7218 -0.55552 -0.0159447 -0.505604 12.3408 12.3624 -1.50946
623 1 Ar 8.46849 7.59869 1.06403 -0.313579 -1.33325 -0.1863 2.3184 11.5053 16.7559
3836 1 Ar 11.0843 7.09976 0.227832 1.00186 -1.49617 1.24242 -6.16866 3.77182 3.05171
3384 1 Ar 9.55181 7.26759 16.6468 0.187304 -0.892067 -0.853681 -1.62507 2.48815 0.945417
539 1 Ar 10.4479 6.8341 1.32751 0.714815 -1.42524 -1.05067 6.86737 -2.07635 9.60104
3785 1 Ar 9.52862 7.25316 0.922343 0.385419 -0.989918 -0.416954 0.865255 14.2097 9.3541
950 1 Ar 11.5333 5.75431 0.613417 -1.2771 -0.337336 -1.15123 0.981078 -0.364964 0.615493
627 1 Ar 11.8207 6.78211 0.904752 -0.70064 0.436656 -0.697525 4.85853 -3.6618 7.44347
187 1 Ar 11.261 7.43083 16.0338 0.0679168 -1.42234 0.438593 -3.38804 -2.65325 -13.038
989 1 Ar 13.2467 6.99644 0.0357589 0.481293 -0.100027 -0.85073 -2.63982 -0.857767 0.55068
196 1 Ar 13.8212 7.24694 1.135 0.687728 -0.372346 -0.877973 -25.0706 -22.3629 -14.8741
713 1 Ar 12.1277 7.19076 16.6108 0.92712 -0.534942 -1.14499 7.53882 -2.38885 4.55617
988 1 Ar 13.9794 8.13653 0.473164 0.227039 -0.984932 0.796393 47.8235 3.12815 16.723
1074 1 Ar 12.911 6.80573 1.06221 -0.245454 -1.34897 -0.274702 -12.7716 -9.63324 -5.06705
993 1 Ar 14.7675 7.1124 0.393093 1.23224 0.924904 1.26438 -5.46007 -10.7456 3.31799
3790 1 Ar 15.9866 7.42833 0.216672 0.773579 1.20576 -0.0428086 -6.4282 1.65934 4.23404
922 1 Ar 0.615485 8.97326 16.3426 0.0467549 0.363704 -0.757238 -1.43659 -2.9542 -3.88639
201 1 Ar 1.69139 6.45584 0.304406 0.0757835 -0.506981 0.424444 12.7845 19.4526 -0.370249
608 1 Ar 16.4876 8.59954 0.835714 -1.59977 -0.597492 -0.55377 -2.92848 30.2646 -8.06955
238 1 Ar 1.41197 8.09755 0.139037 0.870819 -0.395481 -0.177785 -1.30356 5.1879 3.44738
717 1 Ar 2.52531 9.90804 0.669027 0.653222 0.531744 1.17201 -22.0329 -12.1096 4.27759
607 1 Ar 2.98388 7.8707 1.24018 -1.13263 1.34729 -0.0778967 7.24274 -1.80776 -5.33576
1082 1 Ar 2.16204 8.4792 1.75642 -1.40483 0.395789 1.20663 -0.482393 -13.2086 1.05556
647 1 Ar 3.39274 9.0419 1.18642 -0.194047 0.258717 0.0327804 -3.07715 -17.5823 -29.2353
3774 1 Ar 3.8425 6.8871 0.837824 1.08005 -0.0336971 1.00051 -22.2744 4.84283 -16.7667
652 1 Ar 5.64918 8.07458 16.6277 -0.200225 -0.130759 1.18125 -3.0464 23.514 -0.691063
3016 1 Ar 5.90318 8.91985 1.55929 0.452116 1.25427 -0.523227 -6.64627 10.4357 -6.56561
621 1 Ar 4.48348 7.86714 0.337361 0.635173 1.16554 0.435426 -19.7354 -18.4307 -7.98867
628 1 Ar 7.4606 8.03778 15.9845 0.522729 1.30649 -0.297488 -3.60518 -0.746389 9.1331
660 1 Ar 6.6464 8.20327 0.493986 -0.751513 0.621688 1.37508 6.53812 -17.2093 14.7162
3819 1 Ar 6.51886 7.54947 16.3662 0.613168 0.850221 -0.419366 4.62316 -4.74805 3.83241
141 1 Ar 7.9159 8.27028 1.97217 0.131775 0.172615 -0.766168 -6.73894 16.3415 -0.220065
224 1 Ar 8.62554 7.84087 0.085217 0.623959 0.388172 0.515474 1.41218 -4.03385 -16.0336
3739 1 Ar 8.35115 8.69254 1.11776 0.0849983 0.172672 0.770978 -10.9489 8.87855 -3.74262
3821 1 Ar 8.81774 7.92584 15.4533 0.168207 0.941127 -0.568102 -10.5471 26.2832 -0.141724
613 1 Ar 7.75222 8.43478 0.19045 -0.413909 0.738546 0.303772 -4.71633 8.69253 -0.389127
186 1 Ar 10.8681 7.86948 1.10164 0.21567 0.323589 0.137728 7.88666 -2.95702 0.586263
3781 1 Ar 9.27252 8.42084 0.780407 -0.374511 0.042867 -0.161479 18.2316 -19.6102 9.76456
586 1 Ar 10.0958 9.86274 0.824887 -0.743324 -1.56839 0.701018 4.40347 -7.65156 3.06688
152 1 Ar 11.9992 7.83141 0.709576 0.613194 -1.19819 1.26964 -7.61221 6.10012 0.297129
1354 1 Ar 13.0193 7.98989 0.446074 0.193643 0.541476 -0.285541 -33.5303 -15.6175 4.18609
594 1 Ar 13.6091 9.34074 0.809237 -0.259213 -0.0723505 -0.067379 10.0367 -5.47055 15.6804
193 1 Ar 14.7858 8.97805 1.18698 0.210698 1.23206 1.44885 -8.42994 -6.84088 -0.274636
3435 1 Ar 14.4208 9.00914 0.0092745 0.969326 -0.666369 0.361063 -12.3456 -13.7004 6.20178
603 1 Ar 16.3476 8.71992 16.388 -0.299728 0.447621 -0.757536 -7.12892 -14.6121 -6.58222
1117 1 Ar 15.6028 8.6724 2.05388 0.249047 0.0137676 -1.27876 3.61138 -22.1655 -18.0838
3395 1 Ar 15.0516 8.02384 0.0104451 0.813844 -0.786792 -0.0858773 2.20056 15.2554 -4.88193
274 1 Ar 15.403 9.14844 0.344462 0.0123651 -0.816665 -0.968646 14.3754 -2.14973 -13.9669
3803 1 Ar 16.5106 9.54123 0.193099 0.467699 1.17412 0.668042 -8.56322 0.778345 0.200606
634 1 Ar 0.634247 10.3902 1.54448 0.429794 -0.406624 0.13968 23.8718 8.12717 12.2657
236 1 Ar 16.6172 10.1912 1.00452 0.394735 1.49248 -0.501178 -18.0944 -4.49088 -12.0008
206 1 Ar 1.58421 9.58928 0.992329 1.39016 0.858512 -0.3429 -8.17713 -6.706 4.46995
1012 1 Ar 1.23298 11.2356 1.79442 -0.0468717 0.286233 0.771358 -20.9753 0.329022 46.218
645 1 Ar 1.00374 10.1284 0.230115 -0.905346 0.764729 -0.988329 -10.8591 11.3859 23.5548
277 1 Ar 0.599746 9.16126 0.592946 -0.181427 1.14697 -0.787267 8.11802 0.413919 8.19338
247 1 Ar 2.61505 10.9725 0.78131 0.352343 1.26265 0.513364 0.784413 9.63462 -4.38547
217 1 Ar 3.39858 10.289 0.432754 1.93969 0.560067 0.578955 14.0693 26.0376 -2.90716
287 1 Ar 1.7038 9.96735 1.96961 -0.0905797 -0.700746 0.697956 -4.99957 21.1889 8.07731
1414 1 Ar 3.55852 9.92613 1.61795 -0.273895 0.0377099 0.528854 11.6308 23.5976 -7.3277
1051 1 Ar 3.57919 10.9879 1.25896 -0.0695661 0.391189 -0.914074 -6.03402 -13.2279 9.97154
696 1 Ar 4.13363 9.69936 16.4332 0.0555963 -0.301098 1.26641 -1.52487 -2.38418 -33.8913
297 1 Ar 4.14521 9.67011 0.613517 0.879059 0.0125211 -0.80414 20.0587 -14.3689 40.5729
655 1 Ar 5.18107 10.244 0.486197 0.262231 -0.0356127 0.390683 -8.77877 3.25195 9.10739
1417 1 Ar 4.93391 12.0944 0.775742 -1.03362 0.466439 -0.307373 4.98474 -15.4971 31.478
294 1 Ar 5.82449 9.9454 16.5233 1.26327 -0.401683 0.838971 10.5429 -0.539645 -5.55001
304 1 Ar 5.74774 10.0636 1.49298 -0.0391656 -0.142152 0.384684 -0.453275 -2.16254 -3.87105
259 1 Ar 5.40082 11.2439 1.09817 -0.673546 -0.102703 1.27047 10.2653 -16.7793 13.8449
1422 1 Ar 7.4226 10.2107 1.17643 -0.647712 -0.00840373 -0.892541 -8.74201 -21.8882 -24.8299
665 1 Ar 7.10659 10.0993 16.7848 0.53277 -0.78704 -0.329779 10.7472 2.82189 0.0711447
3784 1 Ar 7.87642 9.59385 2.06822 -0.243871 -0.0487583 -0.516733 -18.077 2.72837 -12.625
3867 1 Ar 7.96105 9.50362 0.486428 -0.218184 0.284632 0.461916 -13.0404 0.773739 20.0555
260 1 Ar 8.10581 10.9334 0.729302 -0.0247068 -0.846175 -0.0828599 -5.38987 -3.27996 -6.67887
3823 1 Ar 8.29801 9.73861 16.3568 -0.207347 0.68183 -0.00389406 -11.7332 -45.8687 -10.2208
253 1 Ar 8.9188 9.8187 1.27246 -0.87472 -1.38285 -0.955758 3.88033 -15.6416 -7.10864
3787 1 Ar 9.81783 9.51634 1.94139 -0.410696 -0.134573 -0.364738 -6.21894 13.1854 -16.2277
668 1 Ar 9.63303 10.6093 1.35933 -0.334568 0.567341 -0.328091 -16.065 -3.89668 -3.08871
1458 1 Ar 9.53795 10.8857 2.67038 2.26209 -1.2583 1.32659 2.40552 3.10815 -1.47901
669 1 Ar 11.9596 9.46719 1.52216 0.246521 0.375761 -0.614133 9.98126 -7.08508 -1.46904
582 1 Ar 11.2158 8.92282 0.998365 -0.869032 0.1208 0.927357 24.3317 0.985861 -15.5397
227 1 Ar 10.4082 10.5927 0.111357 0.520039 -0.129204 -0.360641 1.67334 5.8736 -2.03088
195 1 Ar 13.3745 9.23401 16.622 -0.945165 -0.455956 -0.189828 -3.76203 -12.8955 -8.77605
353 1 Ar 12.6453 8.92009 0.733645 0.271852 -0.803576 -0.899908 -7.54521 -3.88955 7.49528
271 1 Ar 12.6727 10.6931 16.7418 -1.19815 0.559543 1.04725 -2.80195 10.8419 -9.21234
996 1 Ar 14.0249 10.2464 1.12676 -1.05615 0.822417 0.57991 -2.57276 3.67292 9.19319
230 1 Ar 13.6609 10.2464 0.112541 -0.963049 -0.847386 -0.304026 0.341663 0.872493 3.5146
194 1 Ar 14.7666 9.75444 16.2136 0.14698 -1.02901 -0.912952 1.62777 9.02994 2.87805
1073 1 Ar 15.7132 10.6714 0.481529 -0.853685 0.0988892 -1.50185 -3.99894 -4.0295 -1.39215
671 1 Ar 15.7718 10.0797 16.3833 0.994608 0.0691195 -0.458509 -3.18157 4.94063 1.6653
315 1 Ar 15.8025 9.40408 1.28036 -0.717832 -1.04 -0.251356 8.64497 6.07644 5.68011
241 1 Ar 0.426268 11.1412 0.465354 1.08261 0.293366 -0.799139 16.78 -14.2408 56.2537
648 1 Ar 1.60319 10.7807 1.01043 1.26846 0.341151 -1.77824 4.91274 -22.1355 -29.4357
245 1 Ar 1.5327 11.5066 0.0810401 -1.68182 -0.892977 -0.828355 4.00139 -2.7548 7.28415
689 1 Ar 3.43778 11.3427 0.0933363 0.0169012 0.751457 -0.658938 22.3284 11.0908 25.6655
3892 1 Ar 2.65964 12.1086 0.504949 0.338577 0.962626 -0.0817958 0.54069 -1.22224 -1.18244
1089 1 Ar 4.40705 11.1354 0.676808 0.418454 -0.331784 0.703627 3.4977 -0.163394 -1.56021
250 1 Ar 5.08092 12.57 15.5431 0.484829 -0.233104 -0.110019 -2.41503 -15.4783 -9.20493
690 1 Ar 3.81755 12.37 0.291109 0.236204 0.671833 -0.876371 -7.20471 2.23652 -7.18583
3856 1 Ar 3.26644 12.0483 16.0794 -2.46142 -1.46914 -0.160638 -22.0494 -2.66884 19.9761
691 1 Ar 5.62697 12.8361 0.340938 -1.34594 0.399492 1.1103 14.5622 -8.86831 25.5505
3895 1 Ar 6.04559 11.9013 0.484397 -0.300865 0.50931 1.28026 -2.92145 -20.6843 12.3243
302 1 Ar 8.00682 11.9775 0.500532 0.0108088 -0.280742 0.484746 3.69399 -9.16424 -7.6841
300 1 Ar 7.19374 11.2813 0.0499018 0.374257 0.0470139 0.472523 0.0860363 1.38327 -1.19439
656 1 Ar 7.01739 11.7362 1.15073 -1.30252 0.0153197 -0.28202 -21.0308 -37.6228 0.649501
232 1 Ar 8.85282 11.4069 1.87662 -0.101924 -0.783299 0.535318 -15.0352 -4.62687 2.16994
3427 1 Ar 9.05367 11.384 0.592256 -0.572264 0.975737 -0.152004 5.39465 7.39747 -0.936376
3832 1 Ar 10.3809 11.7212 0.431163 -0.267067 0.721295 -0.650943 0.159144 1.2226 -2.75727
1461 1 Ar 9.86452 11.5356 1.66743 0.111498 0.620838 0.810528 10.9435 7.20167 3.90265
626 1 Ar 11.192 10.0822 0.96352 0.266548 -0.248664 -0.153079 0.29593 -5.49505 -6.43944
662 1 Ar 12.457 12.1441 1.40153 0.963325 0.154196 -0.479428 -31.7063 -21.1225 20.4639
3512 1 Ar 12.5744 11.7386 0.366042 -0.144213 -1.4536 0.30001 -0.393711 1.96313 1.35078
3830 1 Ar 12.4948 9.9566 0.61585 -0.802734 -1.36112 0.181935 -1.58074 -6.81342 14.1396
351 1 Ar 13.1215 10.8436 1.13043 0.0312184 -0.0283153 -1.01339 -3.78167 5.67781 -5.96165
3826 1 Ar 11.6522 10.0958 16.7095 0.303641 -0.249587 -1.10249 17.1418 27.4871 -1.53263
273 1 Ar 13.562 9.95862 15.8647 -0.465984 0.755225 1.4114 23.0615 16.2349 26.3027
360 1 Ar 14.5123 12.0518 0.0913698 0.260498 0.233857 0.584474 -9.6733 9.68137 -10.7912
321 1 Ar 0.0535384 12.0484 1.16694 0.772674 -0.366155 0.405331 1.44691 9.99591 -2.17337
687 1 Ar 16.2811 11.1681 1.24134 -1.55125 -1.90191 0.0726496 -2.41811 6.97493 0.0191691
288 1 Ar 0.526395 13.2459 1.28605 0.637382 0.302722 0.291748 -3.37268 -3.00452 6.51982
368 1 Ar 0.483896 13.3443 16.3337 0.652374 -0.454864 -0.958859 -2.37151 9.38876 1.04079
686 1 Ar 2.51968 13.25 0.606361 -0.835825 1.02299 -1.44952 -6.79837 1.12322 0.469189
646 1 Ar 2.01398 11.742 1.39082 -0.224717 0.513352 -0.956227 25.1383 -2.09714 -7.263
677 1 Ar 1.51504 12.5814 0.397906 0.471919 -0.111478 -1.59877 4.27233 10.2429 -4.12051
762 1 Ar 4.42629 13.9028 1.96473 0.0562586 -0.161301 0.836113 -15.3396 3.67842 -12.9613
730 1 Ar 4.80446 12.4589 16.6866 -2.07808 0.176898 -0.349741 -12.3394 19.6902 -35.5361
729 1 Ar 3.50776 13.3892 1.05118 -1.56018 0.219475 -0.400178 -12.0751 -23.9679 -8.54665
650 1 Ar 5.77232 12.5108 1.42401 -1.1011 -0.91876 0.147064 2.13914 7.72772 -8.15595
700 1 Ar 6.43023 14.026 2.25141 -0.766193 -0.487716 -0.0562677 -2.32427 3.19012 0.830188
1094 1 Ar 6.60074 13.5248 0.418882 0.338511 -0.882605 -0.400717 -7.62153 -27.6011 -9.31138
3900 1 Ar 7.91409 12.075 1.52781 0.743482 0.255719 0.960913 19.0206 12.1298 9.84855
339 1 Ar 6.70379 13.2033 1.55649 0.379284 -0.344279 0.827522 -7.46158 -9.34238 8.09315
296 1 Ar 7.26783 12.6374 0.846216 -0.427749 -0.332556 1.93707 7.51867 37.7715 -7.73804
3056 1 Ar 6.74715 12.4131 16.744 0.550221 -0.421187 0.475324 0.2374 8.50766 -12.7265
295 1 Ar 7.62633 13.956 2.51282 0.604802 -0.805148 -1.11282 -2.59526 11.3757 -2.16167
1538 1 Ar 8.42119 12.885 0.892059 -1.30043 -0.2856 0.995848 3.70901 5.34671 14.0866
301 1 Ar 9.22814 13.3248 0.181902 0.101231 1.10037 -1.07513 6.0961 2.87451 -6.5382
3937 1 Ar 10.2194 12.7494 0.732166 -1.37747 -0.0939034 -1.52133 -4.10898 9.49832 -4.27263
3943 1 Ar 10.8059 13.2166 1.73055 0.674484 -0.221054 -0.273087 -7.11602 6.91166 -3.43772
387 1 Ar 11.3941 11.2211 0.118375 1.16919 -1.70181 0.364709 6.31571 -7.05711 10.9929
746 1 Ar 10.4355 13.4329 16.5011 -0.220352 1.27181 1.20519 -16.0976 -2.01514 -3.18753
1185 1 Ar 11.4976 12.0902 0.901788 -0.0168884 -1.13484 -1.24259 4.58985 -26.1169 -25.9129
3912 1 Ar 13.4407 13.9032 1.21064 -1.5865 -0.797638 0.155149 0.871219 9.44924 -6.59005
3591 1 Ar 13.7992 11.75 0.883225 0.514617 0.275607 -0.922846 -4.25208 -16.1825 -26.6284
316 1 Ar 12.928 12.8002 0.851904 0.550419 0.312979 -0.078682 40.4803 24.1531 16.2473
3556 1 Ar 12.1319 12.8877 0.290906 -0.0265509 -1.5632 0.964865 -25.0537 -13.7116 -21.7264
670 1 Ar 14.9719 12.7736 0.875479 -1.06778 -1.01707 -0.061821 12.1718 7.55809 -5.17625
3924 1 Ar 14.478 13.536 1.42001 0.122555 0.420814 0.32932 0.11411 3.17318 2.8647
726 1 Ar 16.4814 13.5146 0.573979 0.141198 0.288818 -0.942236 5.4424 6.52682 -13.8829
318 1 Ar 15.7717 12.2837 16.1815 -0.386209 1.64625 1.1979 -2.58695 7.7491 13.4396
244 1 Ar 16.2432 13.0256 1.43958 -0.227119 0.468198 1.37162 6.59469 -13.088 -5.62797
3926 1 Ar 15.5575 13.92 1.10335 0.726347 1.39358 0.605469 -2.23664 -8.08103 20.9383
758 1 Ar 0.313879 15.0969 0.449635 0.472648 0.183777 -0.4911 7.64799 -13.6637 -13.9366
359 1 Ar 1.31555 14.2539 1.841 -1.42489 -0.997293 -0.636119 -4.04613 10.5717 12.9557
3925 1 Ar 3.4289 14.3193 1.35913 0.00456478 1.47027 0.259179 -3.77533 34.6428 13.7095
1171 1 Ar 0.981878 13.6403 0.426332 0.296489 0.553084 -0.777599 5.27514 -3.65487 -3.94974
367 1 Ar 2.24441 14.3114 0.988128 -0.0294701 -1.649 0.156845 -5.25678 -15.445 1.52007
376 1 Ar 4.68842 14.1879 0.836766 0.264934 0.731433 1.84384 -10.4659 -6.70212 7.83621
7 1 Ar 4.14007 15.2946 1.60285 -0.285128 0.879865 0.357574 -0.569091 -29.0907 14.8617
770 1 Ar 5.25448 13.7449 2.52543 -0.317808 1.087 0.443661 -21.8351 45.0149 15.6664
736 1 Ar 5.51611 13.6706 1.46516 -0.177255 -0.408151 -0.548586 -5.44976 -29.7939 1.21916
694 1 Ar 6.92241 14.1394 1.17173 -1.57283 -1.05465 0.67043 5.15158 14.8333 11.0317
3940 1 Ar 6.49131 15.4318 0.773889 -1.38363 -3.13918 0.576775 -5.49604 1.50371 -3.20681
370 1 Ar 6.35022 15.1827 1.83449 -1.06174 0.277054 -0.633731 -13.358 4.25555 14.4923
3981 1 Ar 7.81536 13.8593 0.573413 -0.676463 -0.728016 0.579556 -8.7462 -5.32146 -6.86777
337 1 Ar 7.94467 14.4471 1.42869 0.50184 -0.08358 0.317029 27.5121 -15.7501 6.05532
3979 1 Ar 7.95475 15.0019 0.368346 0.756822 -1.12252 -0.678163 5.67784 -9.9889 4.83058
308 1 Ar 9.17659 14.8159 16.7606 0.420233 -0.294494 0.925628 3.25496 1.34852 -13.4237
745 1 Ar 9.50966 15.0109 0.926687 -0.265823 -0.42177 -1.98209 15.9473 3.88853 13.0019
749 1 Ar 12.3513 13.8214 0.769796 0.0337753 0.0366216 0.658881 1.42585 6.05559 3.83331
346 1 Ar 11.1608 13.3335 0.395619 -0.252549 -0.340835 -1.11534 11.3293 3.18625 18.8611
352 1 Ar 11.0948 14.6026 0.247651 -0.540057 0.542607 -0.334192 -5.50239 6.31842 1.82676
433 1 Ar 12.5531 14.7167 1.46471 -0.300737 0.462589 0.201716 -2.66011 -20.2913 4.21097
3955 1 Ar 12.1104 14.9592 0.537366 0.325704 -0.713021 -0.398743 0.417788 -0.517429 -17.178
3950 1 Ar 15.186 15.5944 0.879418 0.609566 0.232698 0.891843 -9.34717 28.9884 21.3885
39 1 Ar 14.7255 14.6519 1.52155 -0.725396 -1.4686 0.610941 -0.289443 1.77816 -2.58277
357 1 Ar 14.8017 13.1747 16.6364 -0.881882 0.0919108 1.06134 27.1496 -6.07387 26.7931
722 1 Ar 14.878 15.0458 0.0648604 0.564119 1.06658 -0.360564 -18.1016 -6.75238 -17.1901
314 1 Ar 14.4256 14.0456 0.345313 0.242881 -0.233453 -0.927271 -1.05901 8.27412 13.0576
317 1 Ar 16.7389 14.3644 1.24067 -0.737614 1.34481 -0.67819 4.53468 -8.05818 -4.02156
724 1 Ar 15.7687 14.8607 0.541034 0.277699 -0.724288 -2.01701 28.0325 -24.2374 -1.42772
1083 1 Ar 0.11617 15.4016 1.44023 -1.46322 0.270643 0.386656 -0.273357 -1.95576 -14.159
365 1 Ar 1.14298 14.6014 0.831256 0.967819 -0.498823 1.0507 10.0532 1.30512 3.61485
325 1 Ar 16.3429 15.7391 0.493677 -1.65928 -1.33524 -0.884406 -3.03996 21.5638 26.0714
879 1 Ar 1.15221 15.7053 0.768725 0.961195 -0.701305 0.27284 -24.2747 -22.2096 -12.1962
49 1 Ar 3.15371 16.1028 0.533803 0.33978 0.575716 -0.227572 -8.4976 0.278103 -15.2659
399 1 Ar 2.07327 15.9293 0.93885 -0.0528304 -0.59142 -1.58695 48.9142 7.15603 1.95441
3964 1 Ar 2.20703 16.1508 16.7008 -0.0925071 -0.454465 0.970804 -13.3781 -9.63704 -2.24079
459 1 Ar 5.67696 16.0385 1.4189 0.399377 -1.12721 2.08579 1.60311 -12.8244 -0.626644
3971 1 Ar 5.04089 15.1611 0.932129 -0.0158994 0.338327 -0.839732 3.38644 13.0575 0.0320885
3613 1 Ar 4.07845 16.0994 1.03803 1.02216 -1.60332 1.15398 -0.184881 18.4878 -4.79543
374 1 Ar 5.15956 16.7486 1.97916 1.29768 0.959419 -0.729358 0.736236 -2.42101 -27.1246
380 1 Ar 4.94997 16.7747 0.808403 0.895019 0.921473 0.486586 1.16288 -13.0721 11.4504
336 1 Ar 5.90983 14.4923 1.03772 -0.798879 -1.4998 1.97265 16.7138 14.3137 -32.3781